nqpoint: 306    
npath: 6      
segment_nqpoint:
- 51
- 51
- 51
- 51
- 51
- 51
labels:
- [ '$\Gamma$', '$\mathrm{L}$' ]
- [ '$\mathrm{L}$', '$\mathrm{B}_1$' ]
- [ '$\mathrm{B}_1$', '$\mathrm{B}$' ]
- [ '$\mathrm{B}$', '$\mathrm{Z}$' ]
- [ '$\mathrm{Z}$', '$\Gamma$' ]
- [ '$\Gamma$', '$\mathrm{X}$' ]
reciprocal_lattice:
- [   0.07955781,  -0.27332783,  -0.14651995 ] # a*
- [   0.07955781,   0.27332783,  -0.14651995 ] # b*
- [   0.00000000,   0.00000000,   0.32016503 ] # c*
natom: 4      
lattice:
- [     6.284738487836040,    -1.829305107117800,     0.000000000000000 ] # a
- [     6.284738487836040,     1.829305107117800,     0.000000000000000 ] # b
- [     5.752280823701870,     0.000000000000000,     3.123389242583550 ] # c
points:
- symbol: Ce # 1
  coordinates: [  0.000000000000000,  0.000000000000000,  0.000000000000000 ]
  mass: 140.116000
- symbol: K # 2
  coordinates: [  0.500000000000000,  0.500000000000000,  0.500000000000000 ]
  mass: 39.098300
- symbol: O # 3
  coordinates: [  0.730610013000000,  0.730610013000000,  0.730610013000000 ]
  mass: 15.999400
- symbol: O # 4
  coordinates: [  0.269389987000000,  0.269389987000000,  0.269389987000000 ]
  mass: 15.999400

phonon:
- q-position: [    0.0000000,    0.0000000,    0.0000000 ]
  distance:    0.0000000
  band:
  - # 1
    frequency:   -0.0000002891
    eigenvector:
    - # atom 1
      - [ -0.79222727082866,  0.00000000000000 ]
      - [ -0.18909385344901,  0.00001408104157 ]
      - [  0.00251746279176, -0.00010417526319 ]
    - # atom 2
      - [ -0.41848978338836, -0.00000000000000 ]
      - [ -0.09988780831437,  0.00000743823427 ]
      - [  0.00132983614324, -0.00005503002097 ]
    - # atom 3
      - [ -0.26770579403509, -0.00000000000000 ]
      - [ -0.06389772486849,  0.00000475820078 ]
      - [  0.00085068944284, -0.00003520242559 ]
    - # atom 4
      - [ -0.26770579403509,  0.00000000000000 ]
      - [ -0.06389772486849,  0.00000475820078 ]
      - [  0.00085068944284, -0.00003520242559 ]
  - # 2
    frequency:   -0.0000000915
    eigenvector:
    - # atom 1
      - [ -0.15498163126891,  0.00000000000000 ]
      - [  0.64298139303419, -0.00028197468354 ]
      - [ -0.47532943679936,  0.00208612315484 ]
    - # atom 2
      - [ -0.08186821091258, -0.00000000000000 ]
      - [  0.33965145331613, -0.00014895160591 ]
      - [ -0.25109021157049,  0.00110198330623 ]
    - # atom 3
      - [ -0.05237067971202,  0.00000000000000 ]
      - [  0.21727331374488, -0.00009528358759 ]
      - [ -0.16062113612111,  0.00070493313748 ]
    - # atom 4
      - [ -0.05237067971202,  0.00000000000000 ]
      - [  0.21727331374488, -0.00009528358759 ]
      - [ -0.16062113612111,  0.00070493313748 ]
  - # 3
    frequency:    0.0000001320
    eigenvector:
    - # atom 1
      - [ -0.10836755995727,  0.00000000000000 ]
      - [  0.46282302840598,  0.00030032522008 ]
      - [  0.66138730868012, -0.00222188526915 ]
    - # atom 2
      - [ -0.05724457912867,  0.00000000000000 ]
      - [  0.24448376878288,  0.00015864517788 ]
      - [  0.34937427899427, -0.00117369891095 ]
    - # atom 3
      - [ -0.03661906722254, -0.00000000000000 ]
      - [  0.15639502814331,  0.00010148451647 ]
      - [  0.22349295606770, -0.00075080924645 ]
    - # atom 4
      - [ -0.03661906722254, -0.00000000000000 ]
      - [  0.15639502814331,  0.00010148451647 ]
      - [  0.22349295606770, -0.00075080924645 ]
  - # 4
    frequency:    3.0203994581
    eigenvector:
    - # atom 1
      - [ -0.06371974712222,  0.00000000000000 ]
      - [ -0.21891479207918, -0.00000000000000 ]
      - [  0.37377914923117,  0.00000000000000 ]
    - # atom 2
      - [  0.13039815958342,  0.00000000000000 ]
      - [  0.44799433899129,  0.00000000000000 ]
      - [ -0.76491378813715, -0.00000000000000 ]
    - # atom 3
      - [ -0.00763856496367, -0.00000000000000 ]
      - [ -0.02624296134756, -0.00000000000000 ]
      - [  0.04480771569904,  0.00000000000000 ]
    - # atom 4
      - [ -0.00763856496367, -0.00000000000000 ]
      - [ -0.02624296134756, -0.00000000000000 ]
      - [  0.04480771569904,  0.00000000000000 ]
  - # 5
    frequency:    3.0347187914
    eigenvector:
    - # atom 1
      - [ -0.03781977969956,  0.00000000000000 ]
      - [  0.39181483901590,  0.00000000000000 ]
      - [  0.22303062487435,  0.00000000000000 ]
    - # atom 2
      - [  0.07136480354194,  0.00000000000000 ]
      - [ -0.77160351795927, -0.00000000000000 ]
      - [ -0.43974651021758, -0.00000000000000 ]
    - # atom 3
      - [  0.00018008515514,  0.00000000000000 ]
      - [  0.02334986538823, -0.00000000000000 ]
      - [  0.01370623780814,  0.00000000000000 ]
    - # atom 4
      - [  0.00018008515515,  0.00000000000000 ]
      - [  0.02334986538823,  0.00000000000000 ]
      - [  0.01370623780814,  0.00000000000000 ]
  - # 6
    frequency:    5.7983762427
    eigenvector:
    - # atom 1
      - [ -0.30071496470479,  0.00000000000000 ]
      - [  0.01915960096985,  0.00000000000000 ]
      - [ -0.04004279391990, -0.00000000000000 ]
    - # atom 2
      - [  0.87344305094345, -0.00000000000000 ]
      - [  0.00355081254986,  0.00000000000000 ]
      - [  0.15097925028435, -0.00000000000000 ]
    - # atom 3
      - [ -0.23774681057014,  0.00000000000000 ]
      - [ -0.03112509615532, -0.00000000000000 ]
      - [ -0.05875905771391,  0.00000000000000 ]
    - # atom 4
      - [ -0.23774681057014, -0.00000000000000 ]
      - [ -0.03112509615532, -0.00000000000000 ]
      - [ -0.05875905771391,  0.00000000000000 ]
  - # 7
    frequency:    7.3078371685
    eigenvector:
    - # atom 1
      - [  0.05540266605829,  0.00000000000000 ]
      - [  0.19034072902898,  0.00000000000000 ]
      - [ -0.32499126753727, -0.00000000000000 ]
    - # atom 2
      - [  0.01600311177516,  0.00000000000000 ]
      - [  0.05498009714570,  0.00000000000000 ]
      - [ -0.09387403080706, -0.00000000000000 ]
    - # atom 3
      - [ -0.09448551887093, -0.00000000000000 ]
      - [ -0.32461330517291, -0.00000000000000 ]
      - [  0.55425073785205,  0.00000000000000 ]
    - # atom 4
      - [ -0.09448551887090, -0.00000000000000 ]
      - [ -0.32461330517291, -0.00000000000000 ]
      - [  0.55425073785205,  0.00000000000000 ]
  - # 8
    frequency:    9.3227333181
    eigenvector:
    - # atom 1
      - [  0.48149633908004, -0.00000000000000 ]
      - [  0.04103910898845, -0.00000000000000 ]
      - [  0.10611852763688,  0.00000000000000 ]
    - # atom 2
      - [ -0.16752476535263, -0.00000000000000 ]
      - [  0.01428570547442, -0.00000000000000 ]
      - [ -0.02019182572614, -0.00000000000000 ]
    - # atom 3
      - [ -0.58150987912116, -0.00000000000000 ]
      - [ -0.07188997018057,  0.00000000000000 ]
      - [ -0.14123698561014,  0.00000000000000 ]
    - # atom 4
      - [ -0.58150987912116,  0.00000000000000 ]
      - [ -0.07188997018057,  0.00000000000000 ]
      - [ -0.14123698561015, -0.00000000000000 ]
  - # 9
    frequency:   10.5756505077
    eigenvector:
    - # atom 1
      - [ -0.00000000000000, -0.00000000000000 ]
      - [ -0.00000000000000,  0.00000000000000 ]
      - [ -0.00000000000000, -0.00000000000000 ]
    - # atom 2
      - [  0.00000000000000,  0.00000000000000 ]
      - [ -0.00000000000000, -0.00000000000000 ]
      - [ -0.00000000000000, -0.00000000000000 ]
    - # atom 3
      - [ -0.11794397655411, -0.00139381708095 ]
      - [  0.08574784970879,  0.00078928879010 ]
      - [  0.69185772392986,  0.00817611158596 ]
    - # atom 4
      - [  0.11794397655411,  0.00139381708095 ]
      - [ -0.08574784970879, -0.00078928879010 ]
      - [ -0.69185772392986, -0.00817611158596 ]
  - # 10
    frequency:   10.5756505077
    eigenvector:
    - # atom 1
      - [ -0.00000000000000,  0.00000000000000 ]
      - [  0.00000000000000, -0.00000000000000 ]
      - [  0.00000000000000, -0.00000000000000 ]
    - # atom 2
      - [  0.00000000000000, -0.00000000000000 ]
      - [  0.00000000000000, -0.00000000000000 ]
      - [  0.00000000000000, -0.00000000000000 ]
    - # atom 3
      - [  0.01441052437725, -0.00001235644548 ]
      - [  0.70188371638332, -0.00243556347992 ]
      - [ -0.08453193530980,  0.00007248273711 ]
    - # atom 4
      - [ -0.01441052437725,  0.00001235644548 ]
      - [ -0.70188371638332,  0.00243556347992 ]
      - [  0.08453193530980, -0.00007248273711 ]
  - # 11
    frequency:   13.2563997429
    eigenvector:
    - # atom 1
      - [ -0.00000000000000,  0.00000000000000 ]
      - [  0.00000000000002, -0.00000000000000 ]
      - [  0.00000000000000, -0.00000000000000 ]
    - # atom 2
      - [ -0.00000000000000,  0.00000000000000 ]
      - [  0.00000000000000, -0.00000000000000 ]
      - [ -0.00000000000000,  0.00000000000000 ]
    - # atom 3
      - [  0.69704969609932, -0.00115476010427 ]
      - [ -0.00000000000007,  0.00000000000000 ]
      - [  0.11882907449065, -0.00019685694609 ]
    - # atom 4
      - [ -0.69704969609930,  0.00115476010427 ]
      - [  0.00000000000000,  0.00000000000000 ]
      - [ -0.11882907449065,  0.00019685694609 ]
  - # 12
    frequency:   15.0906946373
    eigenvector:
    - # atom 1
      - [ -0.07605856567413,  0.00000000000000 ]
      - [  0.31127105728962,  0.00000000000000 ]
      - [  0.16933905046818,  0.00000000000000 ]
    - # atom 2
      - [ -0.03958447120068, -0.00000000000000 ]
      - [  0.12480600135300,  0.00000000000000 ]
      - [  0.06634818285763,  0.00000000000000 ]
    - # atom 3
      - [  0.14348095632810, -0.00000000000000 ]
      - [ -0.55812661386986, -0.00000000000000 ]
      - [ -0.30242350759170, -0.00000000000000 ]
    - # atom 4
      - [  0.14348095632817,  0.00000000000000 ]
      - [ -0.55812661386986, -0.00000000000000 ]
      - [ -0.30242350759169, -0.00000000000000 ]

- q-position: [    0.0100000,    0.0000000,    0.0000000 ]
  distance:    0.0032017
  band:
  - # 1
    frequency:    0.0745890999
    eigenvector:
    - # atom 1
      - [  0.79369538020324,  0.00000000000000 ]
      - [  0.06253094082605, -0.00000000000002 ]
      - [  0.17192779943420,  0.00000000000001 ]
    - # atom 2
      - [  0.41920606149792, -0.00000000000000 ]
      - [  0.03326149017719, -0.00000000000001 ]
      - [  0.09094445655772,  0.00000000000001 ]
    - # atom 3
      - [  0.26811029787105, -0.00067995471527 ]
      - [  0.02115540518552,  0.00456581849656 ]
      - [  0.05809621765779,  0.00255819163047 ]
    - # atom 4
      - [  0.26811029787105,  0.00067995471527 ]
      - [  0.02115540518552, -0.00456581849657 ]
      - [  0.05809621765779, -0.00255819163046 ]
  - # 2
    frequency:    0.1144301509
    eigenvector:
    - # atom 1
      - [  0.11854233010065,  0.00000000000000 ]
      - [  0.40726252670377,  0.00000000000004 ]
      - [ -0.69536752702641, -0.00000000000011 ]
    - # atom 2
      - [  0.06264154260303,  0.00000000000000 ]
      - [  0.21521048976340,  0.00000000000002 ]
      - [ -0.36745434760277, -0.00000000000006 ]
    - # atom 3
      - [  0.04002625525530,  0.00026457653465 ]
      - [  0.13751369519634,  0.00090897610489 ]
      - [ -0.23479341184000, -0.00155200227452 ]
    - # atom 4
      - [  0.04002625525530, -0.00026457653465 ]
      - [  0.13751369519634, -0.00090897610486 ]
      - [ -0.23479341184000,  0.00155200227444 ]
  - # 3
    frequency:    0.2011376551
    eigenvector:
    - # atom 1
      - [  0.13943300340585,  0.00000000000000 ]
      - [ -0.70240888291852,  0.00000000000008 ]
      - [ -0.38761675351093,  0.00000000000002 ]
    - # atom 2
      - [  0.07365336332596, -0.00000000000000 ]
      - [ -0.37151979971911,  0.00000000000004 ]
      - [ -0.20503553229742,  0.00000000000001 ]
    - # atom 3
      - [  0.04706956374777, -0.00393676273884 ]
      - [ -0.23732292058195,  0.00353240755466 ]
      - [ -0.13097102320133,  0.00139774180149 ]
    - # atom 4
      - [  0.04706956374777,  0.00393676273884 ]
      - [ -0.23732292058195, -0.00353240755460 ]
      - [ -0.13097102320133, -0.00139774180147 ]
  - # 4
    frequency:    3.0208789016
    eigenvector:
    - # atom 1
      - [ -0.06374081193282,  0.00000000000000 ]
      - [ -0.21898716223466,  0.00000000000001 ]
      - [  0.37390271509951, -0.00000000000000 ]
    - # atom 2
      - [  0.13038754431291, -0.00000000000000 ]
      - [  0.44795786962913, -0.00000000000002 ]
      - [ -0.76485151914131,  0.00000000000000 ]
    - # atom 3
      - [ -0.00764034615873, -0.00012029202520 ]
      - [ -0.02624908080507, -0.00041327385536 ]
      - [  0.04481816415874,  0.00070563137636 ]
    - # atom 4
      - [ -0.00764034615873,  0.00012029202520 ]
      - [ -0.02624908080507,  0.00041327385536 ]
      - [  0.04481816415874, -0.00070563137636 ]
  - # 5
    frequency:    3.0376150783
    eigenvector:
    - # atom 1
      - [  0.03773607557759,  0.00000000000000 ]
      - [ -0.39216651295727,  0.00000000000001 ]
      - [ -0.22325086266118,  0.00000000000000 ]
    - # atom 2
      - [ -0.07152046080514, -0.00000000000000 ]
      - [  0.77141415756301, -0.00000000000002 ]
      - [  0.43960907046302,  0.00000000000000 ]
    - # atom 3
      - [ -0.00023640920364,  0.00031898628662 ]
      - [ -0.02346917063988,  0.00162912517365 ]
      - [ -0.01378571427445,  0.00100852422945 ]
    - # atom 4
      - [ -0.00023640920365, -0.00031898628662 ]
      - [ -0.02346917063988, -0.00162912517365 ]
      - [ -0.01378571427445, -0.00100852422945 ]
  - # 6
    frequency:    5.7979000630
    eigenvector:
    - # atom 1
      - [ -0.30076968145418,  0.00000000000000 ]
      - [  0.01905392999398, -0.00000000000000 ]
      - [ -0.04011401103538,  0.00000000000000 ]
    - # atom 2
      - [  0.87347631211946, -0.00000000000000 ]
      - [  0.00359871184807, -0.00000000000000 ]
      - [  0.15101297409699, -0.00000000000000 ]
    - # atom 3
      - [ -0.23759751992320,  0.00153471975863 ]
      - [ -0.03111485613290, -0.00409499160494 ]
      - [ -0.05872761012941, -0.00213672241395 ]
    - # atom 4
      - [ -0.23759751992320, -0.00153471975863 ]
      - [ -0.03111485613290,  0.00409499160494 ]
      - [ -0.05872761012941,  0.00213672241395 ]
  - # 7
    frequency:    7.3098273772
    eigenvector:
    - # atom 1
      - [  0.05536416023531,  0.00000000000000 ]
      - [  0.19020843894228, -0.00000000000000 ]
      - [ -0.32476539300513,  0.00000000000000 ]
    - # atom 2
      - [  0.01599084573265, -0.00000000000000 ]
      - [  0.05493795603566, -0.00000000000000 ]
      - [ -0.09380207829451,  0.00000000000000 ]
    - # atom 3
      - [ -0.09449769017953,  0.00016920042322 ]
      - [ -0.32465512079453,  0.00058130289881 ]
      - [  0.55432213461601, -0.00099252729692 ]
    - # atom 4
      - [ -0.09449769017950, -0.00016920042322 ]
      - [ -0.32465512079453, -0.00058130289881 ]
      - [  0.55432213461602,  0.00099252729692 ]
  - # 8
    frequency:    9.3201682944
    eigenvector:
    - # atom 1
      - [  0.48132500819934,  0.00000000000000 ]
      - [  0.04080485472744, -0.00000000000000 ]
      - [  0.10595212219179, -0.00000000000000 ]
    - # atom 2
      - [ -0.16733181295488, -0.00000000000000 ]
      - [  0.01422761843821,  0.00000000000000 ]
      - [ -0.02019295268545,  0.00000000000000 ]
    - # atom 3
      - [ -0.58104731620358,  0.00083932444609 ]
      - [ -0.07173429156998, -0.02369723803758 ]
      - [ -0.14106695272384, -0.01373590371200 ]
    - # atom 4
      - [ -0.58104731620358, -0.00083932444609 ]
      - [ -0.07173429156998,  0.02369723803758 ]
      - [ -0.14106695272384,  0.01373590371200 ]
  - # 9
    frequency:   10.5746884463
    eigenvector:
    - # atom 1
      - [ -0.00047030727224,  0.00000000000000 ]
      - [ -0.00161578220385,  0.00000000000001 ]
      - [  0.00275881638874, -0.00000000000002 ]
    - # atom 2
      - [ -0.00003492962699,  0.00000000000000 ]
      - [ -0.00012000368375,  0.00000000000000 ]
      - [  0.00020489651744, -0.00000000000000 ]
    - # atom 3
      - [  0.00004353332711,  0.10290858849557 ]
      - [  0.00014956308638,  0.35355150691723 ]
      - [ -0.00025536685254, -0.60366034703935 ]
    - # atom 4
      - [  0.00004353332580, -0.10290858849555 ]
      - [  0.00014956308124, -0.35355150691723 ]
      - [ -0.00025536684488,  0.60366034703936 ]
  - # 10
    frequency:   10.5758632656
    eigenvector:
    - # atom 1
      - [  0.00948908721581,  0.00000000000000 ]
      - [  0.00761142366098,  0.00000000000000 ]
      - [  0.00607550064616, -0.00000000000000 ]
    - # atom 2
      - [ -0.00415832185563,  0.00000000000000 ]
      - [  0.00092811730546,  0.00000000000000 ]
      - [ -0.00016530781406, -0.00000000000000 ]
    - # atom 3
      - [ -0.02578038569073, -0.05986005694009 ]
      - [ -0.00398665005736,  0.61186542525040 ]
      - [ -0.00672979304341,  0.34815245062339 ]
    - # atom 4
      - [ -0.02578038569082,  0.05986005694009 ]
      - [ -0.00398665005758, -0.61186542525040 ]
      - [ -0.00672979304289, -0.34815245062339 ]
  - # 11
    frequency:   13.2533233314
    eigenvector:
    - # atom 1
      - [  0.00347611056752, -0.00000000000000 ]
      - [ -0.00740056276882,  0.00000000000001 ]
      - [ -0.00374177045897, -0.00000000000000 ]
    - # atom 2
      - [ -0.00068230325918, -0.00000000000000 ]
      - [ -0.00406280000598, -0.00000000000000 ]
      - [ -0.00249581393475, -0.00000000000001 ]
    - # atom 3
      - [ -0.00241679211611,  0.69693421560270 ]
      - [  0.00610328130433,  0.00044295551621 ]
      - [  0.00316256584633,  0.11906881799466 ]
    - # atom 4
      - [ -0.00241679211468, -0.69693421560269 ]
      - [  0.00610328130434, -0.00044295551626 ]
      - [  0.00316256584657, -0.11906881799466 ]
  - # 12
    frequency:   15.0903928517
    eigenvector:
    - # atom 1
      - [ -0.07591569090251,  0.00000000000000 ]
      - [  0.31108885283276,  0.00000000000000 ]
      - [  0.16925669352966,  0.00000000000000 ]
    - # atom 2
      - [ -0.03958712142168, -0.00000000000000 ]
      - [  0.12471633541395, -0.00000000000000 ]
      - [  0.06629521555904, -0.00000000000000 ]
    - # atom 3
      - [  0.14342922575138,  0.00948999461278 ]
      - [ -0.55813295146398, -0.00248907349189 ]
      - [ -0.30243603812782,  0.00016000102843 ]
    - # atom 4
      - [  0.14342922575144, -0.00948999461278 ]
      - [ -0.55813295146398,  0.00248907349189 ]
      - [ -0.30243603812781, -0.00016000102843 ]

- q-position: [    0.0200000,    0.0000000,    0.0000000 ]
  distance:    0.0064033
  band:
  - # 1
    frequency:    0.1491985061
    eigenvector:
    - # atom 1
      - [ -0.79375988429344,  0.00000000000000 ]
      - [ -0.06252635165000,  0.00000000000001 ]
      - [ -0.17193610777099, -0.00000000000001 ]
    - # atom 2
      - [ -0.41906195654895,  0.00000000000000 ]
      - [ -0.03394475112321,  0.00000000000001 ]
      - [ -0.09132006221289, -0.00000000000000 ]
    - # atom 3
      - [ -0.26785705968607,  0.00135954444031 ]
      - [ -0.02123004190689, -0.00912382808186 ]
      - [ -0.05809676017847, -0.00511187196220 ]
    - # atom 4
      - [ -0.26785705968607, -0.00135954444031 ]
      - [ -0.02123004190689,  0.00912382808186 ]
      - [ -0.05809676017847,  0.00511187196219 ]
  - # 2
    frequency:    0.2285810034
    eigenvector:
    - # atom 1
      - [  0.11855914303820,  0.00000000000000 ]
      - [  0.40732028946737,  0.00000000000006 ]
      - [ -0.69546615235387, -0.00000000000007 ]
    - # atom 2
      - [  0.06271724825793, -0.00000000000000 ]
      - [  0.21547058342764,  0.00000000000003 ]
      - [ -0.36789843634416, -0.00000000000004 ]
    - # atom 3
      - [  0.03993935174155,  0.00052999661042 ]
      - [  0.13721513072631,  0.00182085026766 ]
      - [ -0.23428363740350, -0.00310895275030 ]
    - # atom 4
      - [  0.03993935174155, -0.00052999661042 ]
      - [  0.13721513072631, -0.00182085026761 ]
      - [ -0.23428363740350,  0.00310895275025 ]
  - # 3
    frequency:    0.4020271194
    eigenvector:
    - # atom 1
      - [ -0.13969060780734,  0.00000000000000 ]
      - [  0.70186536288268, -0.00000000000000 ]
      - [  0.38725450997824, -0.00000000000002 ]
    - # atom 2
      - [ -0.07378729443043, -0.00000000000000 ]
      - [  0.37267445328128, -0.00000000000000 ]
      - [  0.20568895741488, -0.00000000000001 ]
    - # atom 3
      - [ -0.04701456367804,  0.00787859680410 ]
      - [  0.23704489687789, -0.00704660786440 ]
      - [  0.13081756648825, -0.00278395546134 ]
    - # atom 4
      - [ -0.04701456367804, -0.00787859680410 ]
      - [  0.23704489687789,  0.00704660786440 ]
      - [  0.13081756648825,  0.00278395546133 ]
  - # 4
    frequency:    3.0223151871
    eigenvector:
    - # atom 1
      - [ -0.06380411014970,  0.00000000000000 ]
      - [ -0.21920462906842, -0.00000000000003 ]
      - [  0.37427402150554, -0.00000000000000 ]
    - # atom 2
      - [  0.13035561719591, -0.00000000000000 ]
      - [  0.44784818182918,  0.00000000000006 ]
      - [ -0.76466423522582,  0.00000000000001 ]
    - # atom 3
      - [ -0.00764570827525, -0.00024125068476 ]
      - [ -0.02626750283488, -0.00082883799088 ]
      - [  0.04484961824696,  0.00141517322339 ]
    - # atom 4
      - [ -0.00764570827524,  0.00024125068476 ]
      - [ -0.02626750283488,  0.00082883799088 ]
      - [  0.04484961824696, -0.00141517322339 ]
  - # 5
    frequency:    3.0462810993
    eigenvector:
    - # atom 1
      - [  0.03749086600807,  0.00000000000000 ]
      - [ -0.39323072972648, -0.00000000000005 ]
      - [ -0.22391595484537,  0.00000000000000 ]
    - # atom 2
      - [ -0.07198502071044,  0.00000000000000 ]
      - [  0.77083948396167,  0.00000000000010 ]
      - [  0.43919330092896, -0.00000000000000 ]
    - # atom 3
      - [ -0.00040340297775,  0.00061643207163 ]
      - [ -0.02382955743137,  0.00325983934392 ]
      - [ -0.01402525362425,  0.00201430699799 ]
    - # atom 4
      - [ -0.00040340297776, -0.00061643207163 ]
      - [ -0.02382955743137, -0.00325983934393 ]
      - [ -0.01402525362425, -0.00201430699799 ]
  - # 6
    frequency:    5.7964699958
    eigenvector:
    - # atom 1
      - [ -0.30093338554833,  0.00000000000000 ]
      - [  0.01873806676639, -0.00000000000000 ]
      - [ -0.04032691296896,  0.00000000000000 ]
    - # atom 2
      - [  0.87357579726505, -0.00000000000000 ]
      - [  0.00374366607167, -0.00000000000000 ]
      - [  0.15111483047452, -0.00000000000000 ]
    - # atom 3
      - [ -0.23714977942483,  0.00306223235422 ]
      - [ -0.03108488378873, -0.00817796110214 ]
      - [ -0.05863372770899, -0.00426763236107 ]
    - # atom 4
      - [ -0.23714977942483, -0.00306223235422 ]
      - [ -0.03108488378873,  0.00817796110214 ]
      - [ -0.05863372770899,  0.00426763236107 ]
  - # 7
    frequency:    7.3157810924
    eigenvector:
    - # atom 1
      - [  0.05524926500033,  0.00000000000000 ]
      - [  0.18981370641982, -0.00000000000000 ]
      - [ -0.32409141942141,  0.00000000000000 ]
    - # atom 2
      - [  0.01595425416618, -0.00000000000000 ]
      - [  0.05481224236676, -0.00000000000000 ]
      - [ -0.09358743244573,  0.00000000000000 ]
    - # atom 3
      - [ -0.09453400173546,  0.00032175603402 ]
      - [ -0.32477987240023,  0.00110542108158 ]
      - [  0.55453513780967, -0.00188741635502 ]
    - # atom 4
      - [ -0.09453400173543, -0.00032175603402 ]
      - [ -0.32477987240023, -0.00110542108157 ]
      - [  0.55453513780967,  0.00188741635501 ]
  - # 8
    frequency:    9.3124992275
    eigenvector:
    - # atom 1
      - [  0.48081576389855,  0.00000000000000 ]
      - [  0.04011354120175, -0.00000000000000 ]
      - [  0.10546042092245, -0.00000000000000 ]
    - # atom 2
      - [ -0.16675799034418, -0.00000000000000 ]
      - [  0.01405656237408,  0.00000000000000 ]
      - [ -0.02019531470150,  0.00000000000000 ]
    - # atom 3
      - [ -0.57967493121687,  0.00172503792950 ]
      - [ -0.07127682387195, -0.04716029620425 ]
      - [ -0.14056506682425, -0.02732674492939 ]
    - # atom 4
      - [ -0.57967493121687, -0.00172503792949 ]
      - [ -0.07127682387195,  0.04716029620425 ]
      - [ -0.14056506682426,  0.02732674492939 ]
  - # 9
    frequency:   10.5718043974
    eigenvector:
    - # atom 1
      - [ -0.00093293460555,  0.00000000000000 ]
      - [ -0.00320517929727, -0.00000000000000 ]
      - [  0.00547258235362,  0.00000000000000 ]
    - # atom 2
      - [ -0.00006729304915, -0.00000000000000 ]
      - [ -0.00023119094913, -0.00000000000000 ]
      - [  0.00039473971988, -0.00000000000000 ]
    - # atom 3
      - [  0.00007195431158,  0.10290698738975 ]
      - [  0.00024720638733,  0.35354600627553 ]
      - [ -0.00042208490575, -0.60365095518926 ]
    - # atom 4
      - [  0.00007195431160, -0.10290698738975 ]
      - [  0.00024720638739, -0.35354600627553 ]
      - [ -0.00042208490588,  0.60365095518926 ]
  - # 10
    frequency:   10.5765032895
    eigenvector:
    - # atom 1
      - [  0.01882238898138,  0.00000000000000 ]
      - [  0.01512206329326,  0.00000000000000 ]
      - [  0.01206541673153,  0.00000000000000 ]
    - # atom 2
      - [ -0.00822153570342,  0.00000000000000 ]
      - [  0.00182382635460,  0.00000000000000 ]
      - [ -0.00033338300672,  0.00000000000000 ]
    - # atom 3
      - [ -0.05136232345007, -0.06119356043490 ]
      - [ -0.00783439653621,  0.61035972824636 ]
      - [ -0.01334440282766,  0.34704326660967 ]
    - # atom 4
      - [ -0.05136232345008,  0.06119356043489 ]
      - [ -0.00783439653616, -0.61035972824636 ]
      - [ -0.01334440282761, -0.34704326660967 ]
  - # 11
    frequency:   13.2441232118
    eigenvector:
    - # atom 1
      - [  0.00692370195211, -0.00000000000000 ]
      - [ -0.01472192059553,  0.00000000000001 ]
      - [ -0.00744201399361, -0.00000000000000 ]
    - # atom 2
      - [ -0.00136237198240, -0.00000000000000 ]
      - [ -0.00808837607032, -0.00000000000000 ]
      - [ -0.00496944563840, -0.00000000000001 ]
    - # atom 3
      - [ -0.00485469585872,  0.69658693023552 ]
      - [  0.01210461564445,  0.00176523332599 ]
      - [  0.00626182445394,  0.11978404575809 ]
    - # atom 4
      - [ -0.00485469585803, -0.69658693023551 ]
      - [  0.01210461564445, -0.00176523332604 ]
      - [  0.00626182445405, -0.11978404575808 ]
  - # 12
    frequency:   15.0894546313
    eigenvector:
    - # atom 1
      - [ -0.07548978272741,  0.00000000000000 ]
      - [  0.31054699148368,  0.00000000000000 ]
      - [  0.16901194284369,  0.00000000000000 ]
    - # atom 2
      - [ -0.03959463362321, -0.00000000000000 ]
      - [  0.12444936281096, -0.00000000000000 ]
      - [  0.06613757453613, -0.00000000000000 ]
    - # atom 3
      - [  0.14327271968460,  0.01884283544085 ]
      - [ -0.55815463702657, -0.00483580907508 ]
      - [ -0.30247541918938,  0.00037998525585 ]
    - # atom 4
      - [  0.14327271968466, -0.01884283544085 ]
      - [ -0.55815463702657,  0.00483580907508 ]
      - [ -0.30247541918937, -0.00037998525585 ]

- q-position: [    0.0300000,    0.0000000,    0.0000000 ]
  distance:    0.0096050
  band:
  - # 1
    frequency:    0.2238486812
    eigenvector:
    - # atom 1
      - [ -0.79386845108674,  0.00000000000000 ]
      - [ -0.06251750269226,  0.00000000000001 ]
      - [ -0.17194943269006, -0.00000000000002 ]
    - # atom 2
      - [ -0.41882084675075,  0.00000000000000 ]
      - [ -0.03507005275901,  0.00000000000001 ]
      - [ -0.09193802514955, -0.00000000000001 ]
    - # atom 3
      - [ -0.26743448904106,  0.00203839575663 ]
      - [ -0.02135559866906, -0.01366607575569 ]
      - [ -0.05809825864197, -0.00765644674332 ]
    - # atom 4
      - [ -0.26743448904105, -0.00203839575663 ]
      - [ -0.02135559866906,  0.01366607575570 ]
      - [ -0.05809825864197,  0.00765644674330 ]
  - # 2
    frequency:    0.3421781950
    eigenvector:
    - # atom 1
      - [  0.11858589539542,  0.00000000000000 ]
      - [  0.40741220026606,  0.00000000000010 ]
      - [ -0.69562308274760, -0.00000000000015 ]
    - # atom 2
      - [  0.06284353672573,  0.00000000000000 ]
      - [  0.21590445894368,  0.00000000000005 ]
      - [ -0.36863924344132, -0.00000000000008 ]
    - # atom 3
      - [  0.03979568905509,  0.00079703829379 ]
      - [  0.13672156525209,  0.00273829560247 ]
      - [ -0.23344091468696, -0.00467541555558 ]
    - # atom 4
      - [  0.03979568905509, -0.00079703829379 ]
      - [  0.13672156525209, -0.00273829560240 ]
      - [ -0.23344091468696,  0.00467541555548 ]
  - # 3
    frequency:    0.6024178034
    eigenvector:
    - # atom 1
      - [  0.14011790620861,  0.00000000000000 ]
      - [ -0.70093821175296, -0.00000000000001 ]
      - [ -0.38663865307081,  0.00000000000001 ]
    - # atom 2
      - [  0.07401608183074,  0.00000000000000 ]
      - [ -0.37463334782310, -0.00000000000001 ]
      - [ -0.20679723943164,  0.00000000000000 ]
    - # atom 3
      - [  0.04691869957041, -0.01183038043289 ]
      - [ -0.23657848357689,  0.01052409091317 ]
      - [ -0.13056074010018,  0.00414696842782 ]
    - # atom 4
      - [  0.04691869957041,  0.01183038043289 ]
      - [ -0.23657848357689, -0.01052409091317 ]
      - [ -0.13056074010018, -0.00414696842781 ]
  - # 4
    frequency:    3.0247021820
    eigenvector:
    - # atom 1
      - [  0.06390995096605,  0.00000000000000 ]
      - [  0.21956825464857, -0.00000000000001 ]
      - [ -0.37489488217263,  0.00000000000000 ]
    - # atom 2
      - [ -0.13030213452157,  0.00000000000000 ]
      - [ -0.44766443792368,  0.00000000000002 ]
      - [  0.76435050679224, -0.00000000000001 ]
    - # atom 3
      - [  0.00765470756319,  0.00036353488157 ]
      - [  0.02629842068015,  0.00124895612527 ]
      - [ -0.04490240792987, -0.00213249065460 ]
    - # atom 4
      - [  0.00765470756319, -0.00036353488158 ]
      - [  0.02629842068015, -0.00124895612527 ]
      - [ -0.04490240792987,  0.00213249065460 ]
  - # 5
    frequency:    3.0606493046
    eigenvector:
    - # atom 1
      - [  0.03710190114178,  0.00000000000000 ]
      - [ -0.39503555535119,  0.00000000000001 ]
      - [ -0.22503931298978,  0.00000000000000 ]
    - # atom 2