# epsilon and Z* of atoms 1 2 3
   3.25231742   -0.00000000   -0.13686032    0.00000000    4.05513816   -0.00000000   -0.13686032   -0.00000000    4.03180699 
   2.49365937   -0.00000000   -0.35229616    0.00000000    4.56022370    0.00000000   -0.35229615   -0.00000000    4.50016625 
   1.48236842    0.00000000    0.07564312   -0.00000000    1.03864696   -0.00000000    0.07564311   -0.00000000    1.05154217 
  -1.98801389    0.00000000    0.13832652   -0.00000000   -2.79943533    0.00000000    0.13832652    0.00000000   -2.77585421
  