q-position: [    0.0000000,    0.0000000,    0.0000000 ]
point_group: -3m
transformation_matrix:
- [  0.3333333,  0.3333333, -0.6666667 ]
- [  0.6666667, -0.3333333, -0.3333333 ]
- [ -0.3333333, -0.3333333, -0.3333333 ]
rotations:
- matrix:
  - [  1,  0,  0 ]
  - [  0,  1,  0 ]
  - [  0,  0,  1 ]
  symbol: E
- matrix:
  - [ -1,  0,  0 ]
  - [  0, -1,  0 ]
  - [  0,  0, -1 ]
  symbol: i
- matrix:
  - [  0, -1,  0 ]
  - [  1, -1,  0 ]
  - [  0,  0,  1 ]
  symbol: C3
- matrix:
  - [  0,  1,  0 ]
  - [ -1,  1,  0 ]
  - [  0,  0, -1 ]
  symbol: S6
- matrix:
  - [ -1,  1,  0 ]
  - [ -1,  0,  0 ]
  - [  0,  0,  1 ]
  symbol: C3
- matrix:
  - [  1, -1,  0 ]
  - [  1,  0,  0 ]
  - [  0,  0, -1 ]
  symbol: S6
- matrix:
  - [  0,  1,  0 ]
  - [  1,  0,  0 ]
  - [  0,  0, -1 ]
  symbol: C2'
- matrix:
  - [  0, -1,  0 ]
  - [ -1,  0,  0 ]
  - [  0,  0,  1 ]
  symbol: sgd
- matrix:
  - [  1, -1,  0 ]
  - [  0, -1,  0 ]
  - [  0,  0, -1 ]
  symbol: C2'
- matrix:
  - [ -1,  1,  0 ]
  - [  0,  1,  0 ]
  - [  0,  0,  1 ]
  symbol: sgd
- matrix:
  - [ -1,  0,  0 ]
  - [ -1,  1,  0 ]
  - [  0,  0, -1 ]
  symbol: C2'
- matrix:
  - [  1,  0,  0 ]
  - [  1, -1,  0 ]
  - [  0,  0,  1 ]
  symbol: sgd
normal_modes:
- band_indices: [ 1, 2, 3 ]
  frequency: -0.0000001444  
  ir_label: None
  characters: [ [  3,   0.0 ], [  3, 180.0 ], [  0, 180.0 ], [  0,   0.0 ], [  0,   0.0 ], [  0, 180.0 ], [  1, 180.0 ], [  1,   0.0 ], [  1, 180.0 ], [  1,   0.0 ], [  1, 180.0 ], [  1,   0.0 ] ]
- band_indices: [ 4, 5 ]
  frequency: 3.0203994581   
  ir_label: Eu
  characters: [ [  2,   0.0 ], [  2, 180.0 ], [  1, 180.0 ], [  1,   0.0 ], [  1, 180.0 ], [  1,   0.0 ], [  0, 180.0 ], [  0,   0.0 ], [  0,   0.0 ], [  0,   0.0 ], [  0,   0.0 ], [  0, 180.0 ] ]
- band_indices: [ 6 ]
  frequency: 5.7924740064   
  ir_label: A2u
  characters: [ [  1,   0.0 ], [  1, 180.0 ], [  1,   0.0 ], [  1, 180.0 ], [  1,   0.0 ], [  1, 180.0 ], [  1, 180.0 ], [  1,   0.0 ], [  1, 180.0 ], [  1,   0.0 ], [  1, 180.0 ], [  1,   0.0 ] ]
- band_indices: [ 7, 8 ]
  frequency: 7.3078371685   
  ir_label: Eu
  characters: [ [  2,   0.0 ], [  2, 180.0 ], [  1, 180.0 ], [  1,   0.0 ], [  1, 180.0 ], [  1,   0.0 ], [  0,   0.0 ], [  0, 180.0 ], [  0,   0.0 ], [  0, 180.0 ], [  0, 180.0 ], [  0,   0.0 ] ]
- band_indices: [ 9 ]
  frequency: 9.3467422763   
  ir_label: A2u
  characters: [ [  1,   0.0 ], [  1, 180.0 ], [  1,   0.0 ], [  1, 180.0 ], [  1,   0.0 ], [  1, 180.0 ], [  1, 180.0 ], [  1,   0.0 ], [  1, 180.0 ], [  1,   0.0 ], [  1, 180.0 ], [  1,   0.0 ] ]
- band_indices: [ 10, 11 ]
  frequency: 10.5756505077  
  ir_label: Eg
  characters: [ [  2,   0.0 ], [  2,   0.0 ], [  1, 180.0 ], [  1, 180.0 ], [  1, 180.0 ], [  1, 180.0 ], [  0, 180.0 ], [  0, 180.0 ], [  0, 180.0 ], [  0, 180.0 ], [  0,   0.0 ], [  0,   0.0 ] ]
- band_indices: [ 12 ]
  frequency: 13.2563997429  
  ir_label: A1g
  characters: [ [  1,   0.0 ], [  1,   0.0 ], [  1,   0.0 ], [  1,   0.0 ], [  1,   0.0 ], [  1,   0.0 ], [  1,   0.0 ], [  1,   0.0 ], [  1,   0.0 ], [  1,   0.0 ], [  1,   0.0 ], [  1,   0.0 ] ]
