mesh: [    24,    24,    24 ]
nqpoint: 1300   
reciprocal_lattice:
- [   0.07955781,  -0.27332783,  -0.14651995 ] # a*
- [   0.07955781,   0.27332783,  -0.14651995 ] # b*
- [   0.00000000,   0.00000000,   0.32016503 ] # c*
natom:   4      
lattice:
- [     6.284738487836040,    -1.829305107117800,     0.000000000000000 ] # a
- [     6.284738487836040,     1.829305107117800,     0.000000000000000 ] # b
- [     5.752280823701870,     0.000000000000000,     3.123389242583550 ] # c
points:
- symbol: Ce # 1
  coordinates: [  0.000000000000000,  0.000000000000000,  0.000000000000000 ]
  mass: 140.116000
- symbol: K # 2
  coordinates: [  0.500000000000000,  0.500000000000000,  0.500000000000000 ]
  mass: 39.098300
- symbol: O # 3
  coordinates: [  0.730610013000000,  0.730610013000000,  0.730610013000000 ]
  mass: 15.999400
- symbol: O # 4
  coordinates: [  0.269389987000000,  0.269389987000000,  0.269389987000000 ]
  mass: 15.999400

phonon:
- q-position: [    0.0208333,    0.0208333,    0.0208333 ]
  distance_from_gamma:  0.003362732
  weight: 2    
  band:
  - # 1
    frequency:     0.0860138918
  - # 2
    frequency:     0.0860138921
  - # 3
    frequency:     0.1648988836
  - # 4
    frequency:     3.0195791291
  - # 5
    frequency:     3.0195791291
  - # 6
    frequency:     6.6099053830
  - # 7
    frequency:     7.3082303745
  - # 8
    frequency:     7.3082303745
  - # 9
    frequency:    10.5753699786
  - # 10
    frequency:    10.5753699786
  - # 11
    frequency:    13.2571331609
  - # 12
    frequency:    13.7164139406

- q-position: [    0.0625000,    0.0208333,    0.0208333 ]
  distance_from_gamma:  0.014294979
  weight: 6    
  band:
  - # 1
    frequency:     0.3696423355
  - # 2
    frequency:     0.4887893653
  - # 3
    frequency:     0.8594800284
  - # 4
    frequency:     3.0262047475
  - # 5
    frequency:     3.0824347098
  - # 6
    frequency:     5.8155960808
  - # 7
    frequency:     7.3425970837
  - # 8
    frequency:     9.1867473268
  - # 9
    frequency:    10.5552884502
  - # 10
    frequency:    10.5607560203
  - # 11
    frequency:    13.2060058640
  - # 12
    frequency:    14.9196297525

- q-position: [    0.1041667,    0.0208333,    0.0208333 ]
  distance_from_gamma:  0.027446444
  weight: 6    
  band:
  - # 1
    frequency:     0.6655990273
  - # 2
    frequency:     0.9393354412
  - # 3
    frequency:     1.6713219160
  - # 4
    frequency:     3.0488871364
  - # 5
    frequency:     3.2261787571
  - # 6
    frequency:     5.7706668570
  - # 7
    frequency:     7.4393202790
  - # 8
    frequency:     9.1414632278
  - # 9
    frequency:    10.5133747954
  - # 10
    frequency:    10.5583327198
  - # 11
    frequency:    13.0585882651
  - # 12
    frequency:    14.9814898720

- q-position: [    0.1458333,    0.0208333,    0.0208333 ]
  distance_from_gamma:  0.040720885
  weight: 6    
  band:
  - # 1
    frequency:     0.9685463245
  - # 2
    frequency:     1.3596166560
  - # 3
    frequency:     2.4449131687
  - # 4
    frequency:     3.0858639432
  - # 5
    frequency:     3.4492934775
  - # 6
    frequency:     5.7208077874
  - # 7
    frequency:     7.5792900406
  - # 8
    frequency:     8.9799165779
  - # 9
    frequency:    10.4394994228
  - # 10
    frequency:    10.5680524552
  - # 11
    frequency:    12.8332026462
  - # 12
    frequency:    14.9416330804

- q-position: [    0.1875000,    0.0208333,    0.0208333 ]
  distance_from_gamma:  0.054027735
  weight: 6    
  band:
  - # 1
    frequency:     1.2750978387
  - # 2
    frequency:     1.7411749603
  - # 3
    frequency:     3.1341907482
  - # 4
    frequency:     3.1408730410
  - # 5
    frequency:     3.7463342076
  - # 6
    frequency:     5.6563152536
  - # 7
    frequency:     7.7296834202
  - # 8
    frequency:     8.7834359568
  - # 9
    frequency:    10.3556718638
  - # 10
    frequency:    10.5517244756
  - # 11
    frequency:    12.5500605447
  - # 12
    frequency:    14.8583060554

- q-position: [    0.2291667,    0.0208333,    0.0208333 ]
  distance_from_gamma:  0.067347785
  weight: 6    
  band:
  - # 1
    frequency:     1.5823872527
  - # 2
    frequency:     2.0820908547
  - # 3
    frequency:     3.1899603382
  - # 4
    frequency:     3.6855350327
  - # 5
    frequency:     4.1480563158
  - # 6
    frequency:     5.5767786857
  - # 7
    frequency:     7.8540946584
  - # 8
    frequency:     8.5995100952
  - # 9
    frequency:    10.2858128204
  - # 10
    frequency:    10.4799751362
  - # 11
    frequency:    12.2277011599
  - # 12
    frequency:    14.7602112829

- q-position: [    0.2708333,    0.0208333,    0.0208333 ]
  distance_from_gamma:  0.080674497
  weight: 6    
  band:
  - # 1
    frequency:     1.8857664550
  - # 2
    frequency:     2.3826874177
  - # 3
    frequency:     3.2486240632
  - # 4
    frequency:     4.0549566482
  - # 5
    frequency:     4.6399660193
  - # 6
    frequency:     5.4837280300
  - # 7
    frequency:     7.9338824172
  - # 8
    frequency:     8.4679602411
  - # 9
    frequency:    10.2461901086
  - # 10
    frequency:    10.3494872361
  - # 11
    frequency:    11.8809978734
  - # 12
    frequency:    14.6677125444

- q-position: [    0.3125000,    0.0208333,    0.0208333 ]
  distance_from_gamma:  0.094005038
  weight: 6    
  band:
  - # 1
    frequency:     2.1786951885
  - # 2
    frequency:     2.6432354775
  - # 3
    frequency:     3.3053613667
  - # 4
    frequency:     4.3337751131
  - # 5
    frequency:     5.0934317429
  - # 6
    frequency:     5.3925572928
  - # 7
    frequency:     7.9824071882
  - # 8
    frequency:     8.4252339415
  - # 9
    frequency:    10.1865087610
  - # 10
    frequency:    10.2311101701
  - # 11
    frequency:    11.5225166655
  - # 12
    frequency:    14.5838326081

- q-position: [    0.3541667,    0.0208333,    0.0208333 ]
  distance_from_gamma:  0.107337982
  weight: 6    
  band:
  - # 1
    frequency:     2.4512601810
  - # 2
    frequency:     2.8631558969
  - # 3
    frequency:     3.3555163955
  - # 4
    frequency:     4.5576348222
  - # 5
    frequency:     5.2043034184
  - # 6
    frequency:     5.5549314871
  - # 7
    frequency:     8.0313264157
  - # 8
    frequency:     8.4987265399
  - # 9
    frequency:    10.0275484339
  - # 10
    frequency:    10.2193382157
  - # 11
    frequency:    11.1647117695
  - # 12
    frequency:    14.4994531495

- q-position: [    0.3958333,    0.0208333,    0.0208333 ]
  distance_from_gamma:  0.120672531
  weight: 6    
  band:
  - # 1
    frequency:     2.6889994568
  - # 2
    frequency:     3.0408752224
  - # 3
    frequency:     3.3951797626
  - # 4
    frequency:     4.7297737996
  - # 5
    frequency:     5.0893799599
  - # 6
    frequency:     5.8505192236
  - # 7
    frequency:     8.1015796856
  - # 8
    frequency:     8.6923914002
  - # 9
    frequency:     9.8986155190
  - # 10
    frequency:    10.1939598578
  - # 11
    frequency:    10.8173427709
  - # 12
    frequency:    14.4089148123

- q-position: [    0.4375000,    0.0208333,    0.0208333 ]
  distance_from_gamma:  0.134008207
  weight: 6    
  band:
  - # 1
    frequency:     2.8747502760
  - # 2
    frequency:     3.1735466345
  - # 3
    frequency:     3.4221113088
  - # 4
    frequency:     4.8439477105
  - # 5
    frequency:     4.9830037256
  - # 6
    frequency:     6.0681053142
  - # 7
    frequency:     8.1872544486
  - # 8
    frequency:     8.9781156008
  - # 9
    frequency:     9.8086929242
  - # 10
    frequency:    10.1545603298
  - # 11
    frequency:    10.4839717802
  - # 12
    frequency:    14.3205373047

- q-position: [    0.4791667,    0.0208333,    0.0208333 ]
  distance_from_gamma:  0.147344704
  weight: 6    
  band:
  - # 1
    frequency:     2.9923539493
  - # 2
    frequency:     3.2558085669
  - # 3
    frequency:     3.4375685751
  - # 4
    frequency:     4.8627484436
  - # 5
    frequency:     4.9554459331
  - # 6
    frequency:     6.2000128969
  - # 7
    frequency:     8.2596953035
  - # 8
    frequency:     9.3048014102
  - # 9
    frequency:     9.7490065528
  - # 10
    frequency:    10.1168510081
  - # 11
    frequency:    10.1709023495
  - # 12
    frequency:    14.2553175400

- q-position: [   -0.4791667,    0.0208333,    0.0208333 ]
  distance_from_gamma:  0.159551846
  weight: 6    
  band:
  - # 1
    frequency:     3.0303372675
  - # 2
    frequency:     3.2794632955
  - # 3
    frequency:     3.4470751891
  - # 4
    frequency:     4.8493149342
  - # 5
    frequency:     4.9658904322
  - # 6
    frequency:     6.2445366984
  - # 7
    frequency:     8.2857291846
  - # 8
    frequency:     9.5730807169
  - # 9
    frequency:     9.6718435784
  - # 10
    frequency:     9.9716455303
  - # 11
    frequency:    10.1022718073
  - # 12
    frequency:    14.2355061743

- q-position: [   -0.4375000,    0.0208333,    0.0208333 ]
  distance_from_gamma:  0.146214779
  weight: 6    
  band:
  - # 1
    frequency:     2.9857792514
  - # 2
    frequency:     3.2434161156
  - # 3
    frequency:     3.4507794986
  - # 4
    frequency:     4.8826742433
  - # 5
    frequency:     4.9434183168
  - # 6
    frequency:     6.2002414321
  - # 7
    frequency:     8.2515418531
  - # 8
    frequency:     9.3344218147
  - # 9
    frequency:     9.7844854633
  - # 10
    frequency:    10.1065838810
  - # 11
    frequency:    10.1206643755
  - # 12
    frequency:    14.2702370739

- q-position: [   -0.3958333,    0.0208333,    0.0208333 ]
  distance_from_gamma:  0.132878342
  weight: 6    
  band:
  - # 1
    frequency:     2.8652083353
  - # 2
    frequency:     3.1560087171
  - # 3
    frequency:     3.4412323819
  - # 4
    frequency:     4.8461611866
  - # 5
    frequency:     4.9947687986
  - # 6
    frequency:     6.0672998031
  - # 7
    frequency:     8.1743569950
  - # 8
    frequency:     9.0019330356
  - # 9
    frequency:     9.8701487696
  - # 10
    frequency:    10.1607022145
  - # 11
    frequency:    10.4023272468
  - # 12
    frequency:    14.3494583104

- q-position: [   -0.3541667,    0.0208333,    0.0208333 ]
  distance_from_gamma:  0.119542748
  weight: 6    
  band:
  - # 1
    frequency:     2.6805773536
  - # 2
    frequency:     3.0229075663
  - # 3
    frequency:     3.4153808855
  - # 4
    frequency:     4.7191158981
  - # 5
    frequency:     5.1192742473
  - # 6
    frequency:     5.8455214920
  - # 7
    frequency:     8.0890609863
  - # 8
    frequency:     8.7081230658
  - # 9
    frequency:     9.9791078674
  - # 10
    frequency:    10.2001972858
  - # 11
    frequency:    10.7284774978
  - # 12
    frequency:    14.4515484476

- q-position: [   -0.3125000,    0.0208333,    0.0208333 ]
  distance_from_gamma:  0.106208313
  weight: 6    
  band:
  - # 1
    frequency:     2.4454824398
  - # 2
    frequency:     2.8465631609
  - # 3
    frequency:     3.3747915037
  - # 4
    frequency:     4.5398954551
  - # 5
    frequency:     5.2560641035
  - # 6
    frequency:     5.5327593514
  - # 7
    frequency:     8.0237326756
  - # 8
    frequency:     8.5066840513
  - # 9
    frequency:    10.1176584603
  - # 10
    frequency:    10.2234027742
  - # 11
    frequency:    11.0746196841
  - # 12
    frequency:    14.5572243605

- q-position: [   -0.2708333,    0.0208333,    0.0208333 ]
  distance_from_gamma:  0.092875536
  weight: 6    
  band:
  - # 1
    frequency:     2.1734726702
  - # 2
    frequency:     2.6284241227
  - # 3
    frequency:     3.3229698205
  - # 4
    frequency:     4.3111709664
  - # 5
    frequency:     5.1289011754
  - # 6
    frequency:     5.3862545408
  - # 7
    frequency:     7.9816190716
  - # 8
    frequency:     8.4260199602
  - # 9
    frequency:    10.2314159870
  - # 10
    frequency:    10.2731721055
  - # 11
    frequency:    11.4376672037
  - # 12
    frequency:    14.6587692581

- q-position: [   -0.2291667,    0.0208333,    0.0208333 ]
  distance_from_gamma:  0.079545251
  weight: 6    
  band:
  - # 1
    frequency:     1.8764485180
  - # 2
    frequency:     2.3693885908
  - # 3
    frequency:     3.2643204093
  - # 4
    frequency:     4.0284718229
  - # 5
    frequency:     4.6504315871
  - # 6
    frequency:     5.4987697451
  - # 7
    frequency:     7.9382362657
  - # 8
    frequency:     8.4626069053
  - # 9
    frequency:    10.2425364779
  - # 10
    frequency:    10.4209121614
  - # 11
    frequency:    11.8084835207
  - # 12
    frequency:    14.7591828127

- q-position: [   -0.1875000,    0.0208333,    0.0208333 ]
  distance_from_gamma:  0.066218964
  weight: 6    
  band:
  - # 1
    frequency:     1.5638446132
  - # 2
    frequency:     2.0696796985
  - # 3
    frequency:     3.2036425950
  - # 4
    frequency:     3.6551197462
  - # 5
    frequency:     4.1536246200
  - # 6
    frequency:     5.5919913358
  - # 7
    frequency:     7.8597328487
  - # 8
    frequency:     8.5895443215
  - # 9
    frequency:    10.2793263771
  - # 10
    frequency:    10.5333027442
  - # 11
    frequency:    12.1730979628
  - # 12
    frequency:    14.8623300822

- q-position: [   -0.1458333,    0.0208333,    0.0208333 ]
  distance_from_gamma:  0.052899696
  weight: 6    
  band:
  - # 1
    frequency:     1.2434095531
  - # 2
    frequency:     1.7288568892
  - # 3
    frequency:     3.1098274174
  - # 4
    frequency:     3.1457231249
  - # 5
    frequency:     3.7488193876
  - # 6
    frequency:     5.6665203456
  - # 7
    frequency:     7.7334769904
  - # 8
    frequency:     8.7714030726
  - # 9
    frequency:    10.3477763461
  - # 10
    frequency:    10.5958688548
  - # 11
    frequency:    12.5144289607
  - # 12
    frequency:    14.9625645821

- q-position: [   -0.1041667,    0.0208333,    0.0208333 ]
  distance_from_gamma:  0.039594530
  weight: 6    
  band:
  - # 1
    frequency:     0.9219459423
  - # 2
    frequency:     1.3466217742
  - # 3
    frequency:     2.4144880585
  - # 4
    frequency:     3.0950005997
  - # 5
    frequency:     3.4503447469
  - # 6
    frequency:     5.7230909000
  - # 7
    frequency:     7.5805598909
  - # 8
    frequency:     8.9725087686
  - # 9
    frequency:    10.4313675325
  - # 10
    frequency:    10.6147936691
  - # 11
    frequency:    12.8132586262
  - # 12
    frequency:    15.0454717526

- q-position: [   -0.0625000,    0.0208333,    0.0208333 ]
  distance_from_gamma:  0.026324858
  weight: 6    
  band:
  - # 1
    frequency:     0.6054711959
  - # 2
    frequency:     0.9252010418
  - # 3
    frequency:     1.6412507088
  - # 4
    frequency:     3.0552846864
  - # 5
    frequency:     3.2273963387
  - # 6
    frequency:     5.7619587290
  - # 7
    frequency:     7.4391095560
  - # 8
    frequency:     9.1586814205
  - # 9
    frequency:    10.5063875438
  - # 10
    frequency:    10.6073500788
  - # 11
    frequency:    13.0494961224
  - # 12
    frequency:    15.0998486828

- q-position: [   -0.0208333,    0.0208333,    0.0208333 ]
  distance_from_gamma:  0.013198177
  weight: 6    
  band:
  - # 1
    frequency:     0.3040869740
  - # 2
    frequency:     0.4737357759
  - # 3
    frequency:     0.8296683239
  - # 4
    frequency:     3.0295146831
  - # 5
    frequency:     3.0841373687
  - # 6
    frequency:     5.7859976782
  - # 7
    frequency:     7.3421577628
  - # 8
    frequency:     9.2890849818
  - # 9
    frequency:    10.5566243172
  - # 10
    frequency:    10.5875562891
  - # 11
    frequency:    13.2031118280
  - # 12
    frequency:    15.1128694642

- q-position: [    0.0625000,    0.0625000,    0.0208333 ]
  distance_from_gamma:  0.015313426
  weight: 6    
  band:
  - # 1
    frequency:     0.4343232071
  - # 2
    frequency:     0.5180801045
  - # 3
    frequency:     0.8760932524
  - # 4
    frequency:     3.0262900261
  - # 5
    frequency:     3.0765243465
  - # 6
    frequency:     5.8406515378
  - # 7
    frequency:     7.3447682662
  - # 8
    frequency:     9.0742266282
  - # 9
    frequency:    10.5501544993
  - # 10
    frequency:    10.5563718507
  - # 11
    frequency:    13.2074199135
  - # 12
    frequency:    14.7770498517

- q-position: [    0.1041667,    0.0625000,    0.0208333 ]
  distance_from_gamma:  0.024911402
  weight: 12   
  band:
  - # 1
    frequency:     0.6483682638
  - # 2
    frequency:     0.8536572315
  - # 3
    frequency:     1.4700989254
  - # 4
    frequency:     3.0407494517
  - # 5
    frequency:     3.1717557729
  - # 6
    frequency:     5.7924179747
  - # 7
    frequency:     7.4122281579
  - # 8
    frequency:     9.1224984249
  - # 9
    frequency:    10.5066521010
  - # 10
    frequency:    10.5521463077
  - # 11
    frequency:    13.1085381713
  - # 12
    frequency:    14.8886702362

- q-position: [    0.1458333,    0.0625000,    0.0208333 ]
  distance_from_gamma:  0.036913104
  weight: 12   
  band:
  - # 1
    frequency:     0.9081755495
  - # 2
    frequency:     1.2515525042
  - # 3
    frequency:     2.1858565578
  - # 4
    frequency:     3.0714278216
  - # 5
    frequency:     3.3521929127
  - # 6
    frequency:     5.7414311673
  - # 7
    frequency:     7.5352284757
  - # 8
    frequency:     9.0371226185
  - # 9
    frequency:    10.4501118395
  - # 10
    frequency:    10.5477740276
  - # 11
    frequency:    12.9252718904
  - # 12
    frequency:    14.9015340779

- q-position: [    0.1875000,    0.0625000,    0.0208333 ]
  distance_from_gamma:  0.049603417
  weight: 12   
  band:
  - # 1
    frequency:     1.1850213176
  - # 2
    frequency:     1.6356201537
  - # 3
    frequency:     2.8856233153
  - # 4
    frequency:     3.1164612023
  - # 5
    frequency:     3.6050797354
  - # 6
    frequency:     5.6800888512
  - # 7
    frequency:     7.6887866607
  - # 8
    frequency:     8.8696100936
  - # 9
    frequency:    10.3739136006
  - # 10
    frequency:    10.5407879351
  - # 11
    frequency:    12.6778633553
  - # 12
    frequency:    14.8416642656

- q-position: [    0.2291667,    0.0625000,    0.0208333 ]
  distance_from_gamma:  0.062564711
  weight: 12   
  band:
  - # 1
    frequency:     1.4700135848
  - # 2
    frequency:     1.9870765844
  - # 3
    frequency:     3.1720461433
  - # 4
    frequency:     3.4906528736
  - # 5
    frequency:     3.9418964416
  - # 6
    frequency:     5.6057358446
  - # 7
    frequency:     7.8369241053
  - # 8
    frequency:     8.6825204681
  - # 9
    frequency:    10.2953156454
  - # 10
    frequency:    10.4936707253
  - # 11
    frequency:    12.3856142095
  - # 12
    frequency:    14.7477941248

- q-position: [    0.2708333,    0.0625000,    0.0208333 ]
  distance_from_gamma:  0.075657845
  weight: 12   
  band:
  - # 1
    frequency:     1.7577561891
  - # 2
    frequency:     2.3012970084
  - # 3
    frequency:     3.2336258045
  - # 4
    frequency:     3.9193816286
  - # 5
    frequency:     4.3950066584
  - # 6
    frequency:     5.5201176603
  - # 7
    frequency:     7.9490197990
  - # 8
    frequency:     8.5227998103
  - # 9
    frequency:    10.2368978698
  - # 10
    frequency:    10.3859486915
  - # 11
    frequency:    12.0632642670
  - # 12
    frequency:    14.6517617076

- q-position: [    0.3125000,    0.0625000,    0.0208333 ]
  distance_from_gamma:  0.088824537
  weight: 12   
  band:
  - # 1
    frequency:     2.0423982073
  - # 2
    frequency:     2.5773745881
  - # 3
    frequency:     3.2963311296
  - # 4
    frequency:     4.2230363533
  - # 5
    frequency:     4.8675510890
  - # 6
    frequency:     5.4335717775
  - # 7
    frequency:     8.0207923545
  - # 8
    frequency:     8.4289732518
  - # 9
    frequency:    10.1894638193
  - # 10
    frequency:    10.2495551374
  - # 11
    frequency:    11.7214452275
  - # 12
    frequency:    14.5679904705

- q-position: [    0.3541667,    0.0625000,    0.0208333 ]
  distance_from_gamma:  0.102036315
  weight: 12   
  band:
  - # 1
    frequency:     2.3153860524
  - # 2
    frequency:     2.8148373274
  - # 3
    frequency:     3.3554346674
  - # 4
    frequency:     4.4655884668
  - # 5
    frequency:     5.1626680403
  - # 6
    frequency:     5.4549494912
  - # 7
    frequency:     8.0756556844
  - # 8
    frequency:     8.4341517123
  - # 9
    frequency:    10.0504206589
  - # 10
    frequency:    10.2098345118
  - # 11
    frequency:    11.3717168533
  - # 12
    frequency:    14.4913586570

- q-position: [    0.3958333,    0.0625000,    0.0208333 ]
  distance_from_gamma:  0.115277678
  weight: 12   
  band:
  - # 1
    frequency:     2.5629345942
  - # 2
    frequency:     3.0125534432
  - # 3
    frequency:     3.4069124394
  - # 4
    frequency:     4.6577066135
  - # 5
    frequency:     5.1136325864
  - # 6
    frequency:     5.7299844320
  - # 7
    frequency:     8.1398240757
  - # 8
    frequency:     8.5578439050
  - # 9
    frequency:     9.9104395371
  - # 10
    frequency:    10.1875317647
  - # 11
    frequency:    11.0272983536
  - # 12
    frequency:    14.4116447317

- q-position: [    0.4375000,    0.0625000,    0.0208333 ]
  distance_from_gamma:  0.128539484
  weight: 12   
  band:
  - # 1
    frequency:     2.7666871847
  - # 2
    frequency:     3.1678167847
  - # 3
    frequency:     3.4481977712
  - # 4
    frequency:     4.7961076922
  - # 5
    frequency:     5.0097437624
  - # 6
    frequency:     5.9795783421
  - # 7
    frequency:     8.2202083318
  - # 8
    frequency:     8.7901923125
  - # 9
    frequency:     9.8090468887
  - # 10
    frequency:    10.1455276217
  - # 11
    frequency:    10.6998912924
  - # 12
    frequency:    14.3291025589

- q-position: [    0.4791667,    0.0625000,    0.0208333 ]
  distance_from_gamma:  0.141815998
  weight: 12   
  band:
  - # 1
    frequency:     2.9088214470
  - # 2
    frequency:     3.2748535286
  - # 3
    frequency:     3.4791331102
  - # 4
    frequency:     4.8590934877
  - # 5
    frequency:     4.9481666168
  - # 6
    frequency:     6.1496183397
  - # 7
    frequency:     8.2995442900
  - # 8
    frequency:     9.0909390113
  - # 9
    frequency:     9.7472381819
  - # 10
    frequency:    10.0710968000
  - # 11
    frequency:    10.4106080371
  - # 12
    frequency:    14.2588489400

- q-position: [    0.5208333,    0.0625000,    0.0208333 ]
  distance_from_gamma:  0.155103443
  weight: 12   
  band:
  - # 1
    frequency:     2.9777450463
  - # 2
    frequency:     3.3248327509
  - # 3
    frequency:     3.5017519884
  - # 4
    frequency:     4.8447135316
  - # 5
    frequency:     4.9592458000
  - # 6
    frequency:     6.2356161036
  - # 7
    frequency:     8.3466969500
  - # 8
    frequency:     9.4033058019
  - # 9
    frequency:     9.6985457558
  - # 10
    frequency:     9.9296601234
  - # 11
    frequency:    10.2386949674
  - # 12
    frequency:    14.2233644112

- q-position: [   -0.4375000,    0.0625000,    0.0208333 ]
  distance_from_gamma:  0.152851310
  weight: 12   
  band:
  - # 1
    frequency:     2.9706184907
  - # 2
    frequency:     3.3137993417
  - # 3
    frequency:     3.5144639427
  - # 4
    frequency:     4.8633202569
  - # 5
    frequency:     4.9481320146
  - # 6
    frequency:     6.2356439626
  - # 7
    frequency:     8.3382139729
  - # 8
    frequency:     9.4581852772
  - # 9
    frequency:     9.7178128099
  - # 10
    frequency:     9.8804436762
  - # 11
    frequency:    10.2171514236
  - # 12
    frequency:    14.2384825571

- q-position: [   -0.3958333,    0.0625000,    0.0208333 ]
  distance_from_gamma:  0.139565509
  weight: 12   
  band:
  - # 1
    frequency:     2.8916134959
  - # 2
    frequency:     3.2477986889
  - # 3
    frequency:     3.5106376473
  - # 4
    frequency:     4.8870121601
  - # 5
    frequency:     4.9409121939
  - # 6
    frequency:     6.1485679826
  - # 7
    frequency:     8.2776776593
  - # 8
    frequency:     9.1461716218
  - # 9
    frequency:     9.8442851381
  - # 10
    frequency:    10.0295588234
  - # 11
    frequency:    10.3111548795
  - # 12
    frequency:    14.3028763490

- q-position: [   -0.3541667,    0.0625000,    0.0208333 ]
  distance_from_gamma:  0.126291180
  weight: 12   
  band:
  - # 1
    frequency:     2.7482089932
  - # 2
    frequency:     3.1342214100
  - # 3
    frequency:     3.4876007125
  - # 4
    frequency:     4.7826190618
  - # 5
    frequency:     5.0543602211
  - # 6
    frequency:     5.9737285123
  - # 7
    frequency:     8.1937651161
  - # 8
    frequency:     8.8299495287
  - # 9
    frequency:     9.9507253896
  - # 10
    frequency:    10.1404462985
  - # 11
    frequency:    10.5432895884
  - # 12
    frequency:    14.3999184713

- q-position: [   -0.3125000,    0.0625000,    0.0208333 ]
  distance_from_gamma:  0.113032364
  weight: 12   
  band:
  - # 1
    frequency:     2.5494487481
  - # 2
    frequency:     2.9779969582
  - # 3
    frequency:     3.4472696177
  - # 4
    frequency:     4.6276758453
  - # 5
    frequency:     5.1889686406
  - # 6
    frequency:     5.7092552801
  - # 7
    frequency:     8.1186578042
  - # 8
    frequency:     8.5815648032
  - # 9
    frequency:    10.0822145214
  - # 10
    frequency:    10.1887076148
  - # 11
    frequency:    10.8533649669
  - # 12
    frequency:    14.5095108106

- q-position: [   -0.2708333,    0.0625000,    0.0208333 ]
  distance_from_gamma:  0.099795245
  weight: 12   
  band:
  - # 1
    frequency:     2.3060594874
  - # 2
    frequency:     2.7819003025
  - # 3
    frequency:     3.3933644351
  - # 4
    frequency:     4.4251199817
  - # 5
    frequency:     5.3067740071
  - # 6
    frequency:     5.3696652036
  - # 7
    frequency:     8.0662886277
  - # 8
    frequency:     8.4427503577
  - # 9
    frequency:    10.2054455864
  - # 10
    frequency:    10.2313280084
  - # 11
    frequency:    11.1998921766
  - # 12
    frequency:    14.6192121560

- q-position: [   -0.2291667,    0.0625000,    0.0208333 ]
  distance_from_gamma:  0.086589774
  weight: 12   
  band:
  - # 1
    frequency:     2.0296757398
  - # 2
    frequency:     2.5469676407
  - # 3
    frequency:     3.3303710889
  - # 4
    frequency:     4.1754038861
  - # 5
    frequency:     4.9073044934
  - # 6
    frequency:     5.4486172204
  - # 7
    frequency:     8.0232846032
  - # 8
    frequency:     8.4240079141
  - # 9
    frequency:    10.2119621425
  - # 10
    frequency:    10.3782138518
  - # 11
    frequency:    11.5675930967
  - # 12
    frequency:    14.7270202785

- q-position: [   -0.1875000,    0.0625000,    0.0208333 ]
  distance_from_gamma:  0.073433025
  weight: 12   
  band:
  - # 1
    frequency:     1.7312395689
  - # 2
    frequency:     2.2731335874
  - # 3
    frequency:     3.2631930628
  - # 4
    frequency:     3.8650362636
  - # 5
    frequency:     4.4126197000
  - # 6
    frequency:     5.5493969156
  - # 7
    frequency:     7.9574035850
  - # 8
    frequency:     8.5068817851
  - # 9
    frequency:    10.2345376502
  - # 10
    frequency:    10.4992322462
  - # 11
    frequency:    11.9410908670
  - # 12
    frequency:    14.8349459022

- q-position: [   -0.1458333,    0.0625000,    0.0208333 ]
  distance_from_gamma:  0.060356871
  weight: 12   
  band:
  - # 1
    frequency:     1.4207332313
  - # 2
    frequency:     1.9599650645
  - # 3
    frequency:     3.1968002873
  - # 4
    frequency:     3.4318658172
  - # 5
    frequency:     3.9528442319
  - # 6
    frequency:     5.6306612414
  - # 7
    frequency:     7.8438817710
  - # 8
    frequency:     8.6599035372
  - # 9
    frequency:    10.2899176427
  - # 10
    frequency:    10.5783522817
  - # 11
    frequency:    12.3016825530
  - # 12
    frequency:    14.9391407353

- q-position: [   -0.1041667,    0.0625000,    0.0208333 ]
  distance_from_gamma:  0.047428019
  weight: 12   
  band:
  - # 1
    frequency:     1.1082878185
  - # 2
    frequency:     1.6078233545
  - # 3
    frequency:     2.8293724199
  - # 4
    frequency:     3.1360737958
  - # 5
    frequency:     3.6108043046
  - # 6
    frequency:     5.6933414195
  - # 7
    frequency:     7.6909248373
  - # 8
    frequency:     8.8488972930
  - # 9
    frequency:    10.3706088006
  - # 10
    frequency:    10.6152361002
  - # 11
    frequency:    12.6287819613
  - # 12
    frequency:    15.0266118373

- q-position: [   -0.0625000,    0.0625000,    0.0208333 ]
  distance_from_gamma:  0.034810981
  weight: 12   
  band:
  - # 1
    frequency:     0.8062297597
  - # 2
    frequency:     1.2212121912
  - # 3
    frequency:     2.1335412179
  - # 4
    frequency:     3.0850320843
  - # 5
    frequency:     3.3575603791
  - # 6
    frequency:     5.7390542563
  - # 7
    frequency:     7.5335648949
  - # 8
    frequency:     9.0400312001
  - # 9
    frequency:    10.4539842134
  - # 10
    frequency:    10.6191448864
  - # 11
    frequency:    12.9017806120
  - # 12
    frequency:    15.0815511357

- q-position: [   -0.0208333,    0.0625000,    0.0208333 ]
  distance_from_gamma:  0.023024210
  weight: 12   
  band:
  - # 1
    frequency:     0.5371304177
  - # 2
    frequency:     0.8193085622
  - # 3
    frequency:     1.4269875365
  - # 4
    frequency:     3.0472913348
  - # 5
    frequency:     3.1786101617
  - # 6
    frequency:     5.7722324829
  - # 7
    frequency:     7.4092042263
  - # 8
    frequency:     9.1926384404
  - # 9
    frequency:    10.5206542121
  - # 10
    frequency:    10.5960995833
  - # 11
    frequency:    13.1004651350
  - # 12
    frequency:    15.0820040864

- q-position: [    0.1041667,    0.1041667,    0.0208333 ]
  distance_from_gamma:  0.029047737
  weight: 6    
  band:
  - # 1
    frequency:     0.7724206278
  - # 2
    frequency:     0.9863538194
  - # 3
    frequency:     1.6931567523
  - # 4
    frequency:     3.0486759718
  - # 5
    frequency:     3.2100103535
  - # 6
    frequency:     5.7822152516
  - # 7
    frequency:     7.4470413568
  - # 8
    frequency:     9.0710729379
  - # 9
    frequency:    10.4845951892
  - # 10
    frequency:    10.5480931301
  - # 11
    frequency:    13.0569399616
  - # 12
    frequency:    14.8714227964

- q-position: [    0.1458333,    0.1041667,    0.0208333 ]
  distance_from_gamma:  0.037721167