phonopy:
  version: "2.38.0"
  frequency_unit_conversion_factor: 15.633302
  symmetry_tolerance: 1.00000e-05
  configuration:
    cell_filename: "POSCAR"
    atom_name: "Ce K O"
    dim: "4 4 4"
    fc_symmetry: ".TRUE."
    gamma_center: ".TRUE."
    irreps: "0 0 0 1e-3"

physical_unit:
  atomic_mass: "AMU"
  length: "angstrom"
  force: "eV/angstrom"
  force_constants: "eV/angstrom^2"

space_group:
  type: "R-3m"
  number: 166
  Hall_symbol: "-R 3 2\""

supercell_matrix:
- [   4,   0,   0 ]
- [   0,   4,   0 ]
- [   0,   0,   4 ]

primitive_cell:
  lattice:
  - [     6.284738487836040,    -1.829305107117800,     0.000000000000000 ] # a
  - [     6.284738487836040,     1.829305107117800,     0.000000000000000 ] # b
  - [     5.752280823701870,     0.000000000000000,     3.123389242583550 ] # c
  points:
  - symbol: Ce # 1
    coordinates: [  0.000000000000000,  0.000000000000000,  0.000000000000000 ]
    mass: 140.116000
  - symbol: K # 2
    coordinates: [  0.500000000000000,  0.500000000000000,  0.500000000000000 ]
    mass: 39.098300
  - symbol: O # 3
    coordinates: [  0.730610013000000,  0.730610013000000,  0.730610013000000 ]
    mass: 15.999400
  - symbol: O # 4
    coordinates: [  0.269389987000000,  0.269389987000000,  0.269389987000000 ]
    mass: 15.999400
  reciprocal_lattice: # without 2pi
  - [     0.079557805144596,    -0.273327832549369,    -0.146519950401867 ] # a*
  - [     0.079557805144596,     0.273327832549369,    -0.146519950401867 ] # b*
  - [     0.000000000000000,     0.000000000000000,     0.320165026621158 ] # c*

unit_cell:
  lattice:
  - [     6.284738487836040,    -1.829305107117800,     0.000000000000000 ] # a
  - [     6.284738487836040,     1.829305107117800,     0.000000000000000 ] # b
  - [     5.752280823701870,     0.000000000000000,     3.123389242583550 ] # c
  points:
  - symbol: Ce # 1
    coordinates: [  0.000000000000000,  0.000000000000000,  0.000000000000000 ]
    mass: 140.116000
    reduced_to: 1
  - symbol: K # 2
    coordinates: [  0.500000000000000,  0.500000000000000,  0.500000000000000 ]
    mass: 39.098300
    reduced_to: 2
  - symbol: O # 3
    coordinates: [  0.730610013000000,  0.730610013000000,  0.730610013000000 ]
    mass: 15.999400
    reduced_to: 3
  - symbol: O # 4
    coordinates: [  0.269389987000000,  0.269389987000000,  0.269389987000000 ]
    mass: 15.999400
    reduced_to: 4

supercell:
  lattice:
  - [    25.138953951344160,    -7.317220428471200,     0.000000000000000 ] # a
  - [    25.138953951344160,     7.317220428471200,     0.000000000000000 ] # b
  - [    23.009123294807480,     0.000000000000000,    12.493556970334200 ] # c
  points:
  - symbol: Ce # 1
    coordinates: [  0.000000000000000,  0.000000000000000,  0.000000000000000 ]
    mass: 140.116000
    reduced_to: 1
  - symbol: Ce # 2
    coordinates: [  0.250000000000000,  0.000000000000000,  0.000000000000000 ]
    mass: 140.116000
    reduced_to: 1
  - symbol: Ce # 3
    coordinates: [  0.500000000000000,  0.000000000000000,  0.000000000000000 ]
    mass: 140.116000
    reduced_to: 1
  - symbol: Ce # 4
    coordinates: [  0.750000000000000,  0.000000000000000,  0.000000000000000 ]
    mass: 140.116000
    reduced_to: 1
  - symbol: Ce # 5
    coordinates: [  0.000000000000000,  0.250000000000000,  0.000000000000000 ]
    mass: 140.116000
    reduced_to: 1
  - symbol: Ce # 6
    coordinates: [  0.250000000000000,  0.250000000000000,  0.000000000000000 ]
    mass: 140.116000
    reduced_to: 1
  - symbol: Ce # 7
    coordinates: [  0.500000000000000,  0.250000000000000,  0.000000000000000 ]
    mass: 140.116000
    reduced_to: 1
  - symbol: Ce # 8
    coordinates: [  0.750000000000000,  0.250000000000000,  0.000000000000000 ]
    mass: 140.116000
    reduced_to: 1
  - symbol: Ce # 9
    coordinates: [  0.000000000000000,  0.500000000000000,  0.000000000000000 ]
    mass: 140.116000
    reduced_to: 1
  - symbol: Ce # 10
    coordinates: [  0.250000000000000,  0.500000000000000,  0.000000000000000 ]
    mass: 140.116000
    reduced_to: 1
  - symbol: Ce # 11
    coordinates: [  0.500000000000000,  0.500000000000000,  0.000000000000000 ]
    mass: 140.116000
    reduced_to: 1
  - symbol: Ce # 12
    coordinates: [  0.750000000000000,  0.500000000000000,  0.000000000000000 ]
    mass: 140.116000
    reduced_to: 1
  - symbol: Ce # 13
    coordinates: [  0.000000000000000,  0.750000000000000,  0.000000000000000 ]
    mass: 140.116000
    reduced_to: 1
  - symbol: Ce # 14
    coordinates: [  0.250000000000000,  0.750000000000000,  0.000000000000000 ]
    mass: 140.116000
    reduced_to: 1
  - symbol: Ce # 15
    coordinates: [  0.500000000000000,  0.750000000000000,  0.000000000000000 ]
    mass: 140.116000
    reduced_to: 1
  - symbol: Ce # 16
    coordinates: [  0.750000000000000,  0.750000000000000,  0.000000000000000 ]
    mass: 140.116000
    reduced_to: 1
  - symbol: Ce # 17
    coordinates: [  0.000000000000000,  0.000000000000000,  0.250000000000000 ]
    mass: 140.116000
    reduced_to: 1
  - symbol: Ce # 18
    coordinates: [  0.250000000000000,  0.000000000000000,  0.250000000000000 ]
    mass: 140.116000
    reduced_to: 1
  - symbol: Ce # 19
    coordinates: [  0.500000000000000,  0.000000000000000,  0.250000000000000 ]
    mass: 140.116000
    reduced_to: 1
  - symbol: Ce # 20
    coordinates: [  0.750000000000000,  0.000000000000000,  0.250000000000000 ]
    mass: 140.116000
    reduced_to: 1
  - symbol: Ce # 21
    coordinates: [  0.000000000000000,  0.250000000000000,  0.250000000000000 ]
    mass: 140.116000
    reduced_to: 1
  - symbol: Ce # 22
    coordinates: [  0.250000000000000,  0.250000000000000,  0.250000000000000 ]
    mass: 140.116000
    reduced_to: 1
  - symbol: Ce # 23
    coordinates: [  0.500000000000000,  0.250000000000000,  0.250000000000000 ]
    mass: 140.116000
    reduced_to: 1
  - symbol: Ce # 24
    coordinates: [  0.750000000000000,  0.250000000000000,  0.250000000000000 ]
    mass: 140.116000
    reduced_to: 1
  - symbol: Ce # 25
    coordinates: [  0.000000000000000,  0.500000000000000,  0.250000000000000 ]
    mass: 140.116000
    reduced_to: 1
  - symbol: Ce # 26
    coordinates: [  0.250000000000000,  0.500000000000000,  0.250000000000000 ]
    mass: 140.116000
    reduced_to: 1
  - symbol: Ce # 27
    coordinates: [  0.500000000000000,  0.500000000000000,  0.250000000000000 ]
    mass: 140.116000
    reduced_to: 1
  - symbol: Ce # 28
    coordinates: [  0.750000000000000,  0.500000000000000,  0.250000000000000 ]
    mass: 140.116000
    reduced_to: 1
  - symbol: Ce # 29
    coordinates: [  0.000000000000000,  0.750000000000000,  0.250000000000000 ]
    mass: 140.116000
    reduced_to: 1
  - symbol: Ce # 30
    coordinates: [  0.250000000000000,  0.750000000000000,  0.250000000000000 ]
    mass: 140.116000
    reduced_to: 1
  - symbol: Ce # 31
    coordinates: [  0.500000000000000,  0.750000000000000,  0.250000000000000 ]
    mass: 140.116000
    reduced_to: 1
  - symbol: Ce # 32
    coordinates: [  0.750000000000000,  0.750000000000000,  0.250000000000000 ]
    mass: 140.116000
    reduced_to: 1
  - symbol: Ce # 33
    coordinates: [  0.000000000000000,  0.000000000000000,  0.500000000000000 ]
    mass: 140.116000
    reduced_to: 1
  - symbol: Ce # 34
    coordinates: [  0.250000000000000,  0.000000000000000,  0.500000000000000 ]
    mass: 140.116000
    reduced_to: 1
  - symbol: Ce # 35
    coordinates: [  0.500000000000000,  0.000000000000000,  0.500000000000000 ]
    mass: 140.116000
    reduced_to: 1
  - symbol: Ce # 36
    coordinates: [  0.750000000000000,  0.000000000000000,  0.500000000000000 ]
    mass: 140.116000
    reduced_to: 1
  - symbol: Ce # 37
    coordinates: [  0.000000000000000,  0.250000000000000,  0.500000000000000 ]
    mass: 140.116000
    reduced_to: 1
  - symbol: Ce # 38
    coordinates: [  0.250000000000000,  0.250000000000000,  0.500000000000000 ]
    mass: 140.116000
    reduced_to: 1
  - symbol: Ce # 39
    coordinates: [  0.500000000000000,  0.250000000000000,  0.500000000000000 ]
    mass: 140.116000
    reduced_to: 1
  - symbol: Ce # 40
    coordinates: [  0.750000000000000,  0.250000000000000,  0.500000000000000 ]
    mass: 140.116000
    reduced_to: 1
  - symbol: Ce # 41
    coordinates: [  0.000000000000000,  0.500000000000000,  0.500000000000000 ]
    mass: 140.116000
    reduced_to: 1
  - symbol: Ce # 42
    coordinates: [  0.250000000000000,  0.500000000000000,  0.500000000000000 ]
    mass: 140.116000
    reduced_to: 1
  - symbol: Ce # 43
    coordinates: [  0.500000000000000,  0.500000000000000,  0.500000000000000 ]
    mass: 140.116000
    reduced_to: 1
  - symbol: Ce # 44
    coordinates: [  0.750000000000000,  0.500000000000000,  0.500000000000000 ]
    mass: 140.116000
    reduced_to: 1
  - symbol: Ce # 45
    coordinates: [  0.000000000000000,  0.750000000000000,  0.500000000000000 ]
    mass: 140.116000
    reduced_to: 1
  - symbol: Ce # 46
    coordinates: [  0.250000000000000,  0.750000000000000,  0.500000000000000 ]
    mass: 140.116000
    reduced_to: 1
  - symbol: Ce # 47
    coordinates: [  0.500000000000000,  0.750000000000000,  0.500000000000000 ]
    mass: 140.116000
    reduced_to: 1
  - symbol: Ce # 48
    coordinates: [  0.750000000000000,  0.750000000000000,  0.500000000000000 ]
    mass: 140.116000
    reduced_to: 1
  - symbol: Ce # 49
    coordinates: [  0.000000000000000,  0.000000000000000,  0.750000000000000 ]
    mass: 140.116000
    reduced_to: 1
  - symbol: Ce # 50
    coordinates: [  0.250000000000000,  0.000000000000000,  0.750000000000000 ]
    mass: 140.116000
    reduced_to: 1
  - symbol: Ce # 51
    coordinates: [  0.500000000000000,  0.000000000000000,  0.750000000000000 ]
    mass: 140.116000
    reduced_to: 1
  - symbol: Ce # 52
    coordinates: [  0.750000000000000,  0.000000000000000,  0.750000000000000 ]
    mass: 140.116000
    reduced_to: 1
  - symbol: Ce # 53
    coordinates: [  0.000000000000000,  0.250000000000000,  0.750000000000000 ]
    mass: 140.116000
    reduced_to: 1
  - symbol: Ce # 54
    coordinates: [  0.250000000000000,  0.250000000000000,  0.750000000000000 ]
    mass: 140.116000
    reduced_to: 1
  - symbol: Ce # 55
    coordinates: [  0.500000000000000,  0.250000000000000,  0.750000000000000 ]
    mass: 140.116000
    reduced_to: 1
  - symbol: Ce # 56
    coordinates: [  0.750000000000000,  0.250000000000000,  0.750000000000000 ]
    mass: 140.116000
    reduced_to: 1
  - symbol: Ce # 57
    coordinates: [  0.000000000000000,  0.500000000000000,  0.750000000000000 ]
    mass: 140.116000
    reduced_to: 1
  - symbol: Ce # 58
    coordinates: [  0.250000000000000,  0.500000000000000,  0.750000000000000 ]
    mass: 140.116000
    reduced_to: 1
  - symbol: Ce # 59
    coordinates: [  0.500000000000000,  0.500000000000000,  0.750000000000000 ]
    mass: 140.116000
    reduced_to: 1
  - symbol: Ce # 60
    coordinates: [  0.750000000000000,  0.500000000000000,  0.750000000000000 ]
    mass: 140.116000
    reduced_to: 1
  - symbol: Ce # 61
    coordinates: [  0.000000000000000,  0.750000000000000,  0.750000000000000 ]
    mass: 140.116000
    reduced_to: 1
  - symbol: Ce # 62
    coordinates: [  0.250000000000000,  0.750000000000000,  0.750000000000000 ]
    mass: 140.116000
    reduced_to: 1
  - symbol: Ce # 63
    coordinates: [  0.500000000000000,  0.750000000000000,  0.750000000000000 ]
    mass: 140.116000
    reduced_to: 1
  - symbol: Ce # 64
    coordinates: [  0.750000000000000,  0.750000000000000,  0.750000000000000 ]
    mass: 140.116000
    reduced_to: 1
  - symbol: K # 65
    coordinates: [  0.125000000000000,  0.125000000000000,  0.125000000000000 ]
    mass: 39.098300
    reduced_to: 65
  - symbol: K # 66
    coordinates: [  0.375000000000000,  0.125000000000000,  0.125000000000000 ]
    mass: 39.098300
    reduced_to: 65
  - symbol: K # 67
    coordinates: [  0.625000000000000,  0.125000000000000,  0.125000000000000 ]
    mass: 39.098300
    reduced_to: 65
  - symbol: K # 68
    coordinates: [  0.875000000000000,  0.125000000000000,  0.125000000000000 ]
    mass: 39.098300
    reduced_to: 65
  - symbol: K # 69
    coordinates: [  0.125000000000000,  0.375000000000000,  0.125000000000000 ]
    mass: 39.098300
    reduced_to: 65
  - symbol: K # 70
    coordinates: [  0.375000000000000,  0.375000000000000,  0.125000000000000 ]
    mass: 39.098300
    reduced_to: 65
  - symbol: K # 71
    coordinates: [  0.625000000000000,  0.375000000000000,  0.125000000000000 ]
    mass: 39.098300
    reduced_to: 65
  - symbol: K # 72
    coordinates: [  0.875000000000000,  0.375000000000000,  0.125000000000000 ]
    mass: 39.098300
    reduced_to: 65
  - symbol: K # 73
    coordinates: [  0.125000000000000,  0.625000000000000,  0.125000000000000 ]
    mass: 39.098300
    reduced_to: 65
  - symbol: K # 74
    coordinates: [  0.375000000000000,  0.625000000000000,  0.125000000000000 ]
    mass: 39.098300
    reduced_to: 65
  - symbol: K # 75
    coordinates: [  0.625000000000000,  0.625000000000000,  0.125000000000000 ]
    mass: 39.098300
    reduced_to: 65
  - symbol: K # 76
    coordinates: [  0.875000000000000,  0.625000000000000,  0.125000000000000 ]
    mass: 39.098300
    reduced_to: 65
  - symbol: K # 77
    coordinates: [  0.125000000000000,  0.875000000000000,  0.125000000000000 ]
    mass: 39.098300
    reduced_to: 65
  - symbol: K # 78
    coordinates: [  0.375000000000000,  0.875000000000000,  0.125000000000000 ]
    mass: 39.098300
    reduced_to: 65
  - symbol: K # 79
    coordinates: [  0.625000000000000,  0.875000000000000,  0.125000000000000 ]
    mass: 39.098300
    reduced_to: 65
  - symbol: K # 80
    coordinates: [  0.875000000000000,  0.875000000000000,  0.125000000000000 ]
    mass: 39.098300
    reduced_to: 65
  - symbol: K # 81
    coordinates: [  0.125000000000000,  0.125000000000000,  0.375000000000000 ]
    mass: 39.098300
    reduced_to: 65
  - symbol: K # 82
    coordinates: [  0.375000000000000,  0.125000000000000,  0.375000000000000 ]
    mass: 39.098300
    reduced_to: 65
  - symbol: K # 83
    coordinates: [  0.625000000000000,  0.125000000000000,  0.375000000000000 ]
    mass: 39.098300
    reduced_to: 65
  - symbol: K # 84
    coordinates: [  0.875000000000000,  0.125000000000000,  0.375000000000000 ]
    mass: 39.098300
    reduced_to: 65
  - symbol: K # 85
    coordinates: [  0.125000000000000,  0.375000000000000,  0.375000000000000 ]
    mass: 39.098300
    reduced_to: 65
  - symbol: K # 86
    coordinates: [  0.375000000000000,  0.375000000000000,  0.375000000000000 ]
    mass: 39.098300
    reduced_to: 65
  - symbol: K # 87
    coordinates: [  0.625000000000000,  0.375000000000000,  0.375000000000000 ]
    mass: 39.098300
    reduced_to: 65
  - symbol: K # 88
    coordinates: [  0.875000000000000,  0.375000000000000,  0.375000000000000 ]
    mass: 39.098300
    reduced_to: 65
  - symbol: K # 89
    coordinates: [  0.125000000000000,  0.625000000000000,  0.375000000000000 ]
    mass: 39.098300
    reduced_to: 65
  - symbol: K # 90
    coordinates: [  0.375000000000000,  0.625000000000000,  0.375000000000000 ]
    mass: 39.098300
    reduced_to: 65
  - symbol: K # 91
    coordinates: [  0.625000000000000,  0.625000000000000,  0.375000000000000 ]
    mass: 39.098300
    reduced_to: 65
  - symbol: K # 92
    coordinates: [  0.875000000000000,  0.625000000000000,  0.375000000000000 ]
    mass: 39.098300
    reduced_to: 65
  - symbol: K # 93
    coordinates: [  0.125000000000000,  0.875000000000000,  0.375000000000000 ]
    mass: 39.098300
    reduced_to: 65
  - symbol: K # 94
    coordinates: [  0.375000000000000,  0.875000000000000,  0.375000000000000 ]
    mass: 39.098300
    reduced_to: 65
  - symbol: K # 95
    coordinates: [  0.625000000000000,  0.875000000000000,  0.375000000000000 ]
    mass: 39.098300
    reduced_to: 65
  - symbol: K # 96
    coordinates: [  0.875000000000000,  0.875000000000000,  0.375000000000000 ]
    mass: 39.098300
    reduced_to: 65
  - symbol: K # 97
    coordinates: [  0.125000000000000,  0.125000000000000,  0.625000000000000 ]
    mass: 39.098300
    reduced_to: 65
  - symbol: K # 98
    coordinates: [  0.375000000000000,  0.125000000000000,  0.625000000000000 ]
    mass: 39.098300
    reduced_to: 65
  - symbol: K # 99
    coordinates: [  0.625000000000000,  0.125000000000000,  0.625000000000000 ]
    mass: 39.098300
    reduced_to: 65
  - symbol: K # 100
    coordinates: [  0.875000000000000,  0.125000000000000,  0.625000000000000 ]
    mass: 39.098300
    reduced_to: 65
  - symbol: K # 101
    coordinates: [  0.125000000000000,  0.375000000000000,  0.625000000000000 ]
    mass: 39.098300
    reduced_to: 65
  - symbol: K # 102
    coordinates: [  0.375000000000000,  0.375000000000000,  0.625000000000000 ]
    mass: 39.098300
    reduced_to: 65
  - symbol: K # 103
    coordinates: [  0.625000000000000,  0.375000000000000,  0.625000000000000 ]
    mass: 39.098300
    reduced_to: 65
  - symbol: K # 104
    coordinates: [  0.875000000000000,  0.375000000000000,  0.625000000000000 ]
    mass: 39.098300
    reduced_to: 65
  - symbol: K # 105
    coordinates: [  0.125000000000000,  0.625000000000000,  0.625000000000000 ]
    mass: 39.098300
    reduced_to: 65
  - symbol: K # 106
    coordinates: [  0.375000000000000,  0.625000000000000,  0.625000000000000 ]
    mass: 39.098300
    reduced_to: 65
  - symbol: K # 107
    coordinates: [  0.625000000000000,  0.625000000000000,  0.625000000000000 ]
    mass: 39.098300
    reduced_to: 65
  - symbol: K # 108
    coordinates: [  0.875000000000000,  0.625000000000000,  0.625000000000000 ]
    mass: 39.098300
    reduced_to: 65
  - symbol: K # 109
    coordinates: [  0.125000000000000,  0.875000000000000,  0.625000000000000 ]
    mass: 39.098300
    reduced_to: 65
  - symbol: K # 110
    coordinates: [  0.375000000000000,  0.875000000000000,  0.625000000000000 ]
    mass: 39.098300
    reduced_to: 65
  - symbol: K # 111
    coordinates: [  0.625000000000000,  0.875000000000000,  0.625000000000000 ]
    mass: 39.098300
    reduced_to: 65
  - symbol: K # 112
    coordinates: [  0.875000000000000,  0.875000000000000,  0.625000000000000 ]
    mass: 39.098300
    reduced_to: 65
  - symbol: K # 113
    coordinates: [  0.125000000000000,  0.125000000000000,  0.875000000000000 ]
    mass: 39.098300
    reduced_to: 65
  - symbol: K # 114
    coordinates: [  0.375000000000000,  0.125000000000000,  0.875000000000000 ]
    mass: 39.098300
    reduced_to: 65
  - symbol: K # 115
    coordinates: [  0.625000000000000,  0.125000000000000,  0.875000000000000 ]
    mass: 39.098300
    reduced_to: 65
  - symbol: K # 116
    coordinates: [  0.875000000000000,  0.125000000000000,  0.875000000000000 ]
    mass: 39.098300
    reduced_to: 65
  - symbol: K # 117
    coordinates: [  0.125000000000000,  0.375000000000000,  0.875000000000000 ]
    mass: 39.098300
    reduced_to: 65
  - symbol: K # 118
    coordinates: [  0.375000000000000,  0.375000000000000,  0.875000000000000 ]
    mass: 39.098300
    reduced_to: 65
  - symbol: K # 119
    coordinates: [  0.625000000000000,  0.375000000000000,  0.875000000000000 ]
    mass: 39.098300
    reduced_to: 65
  - symbol: K # 120
    coordinates: [  0.875000000000000,  0.375000000000000,  0.875000000000000 ]
    mass: 39.098300
    reduced_to: 65
  - symbol: K # 121
    coordinates: [  0.125000000000000,  0.625000000000000,  0.875000000000000 ]
    mass: 39.098300
    reduced_to: 65
  - symbol: K # 122
    coordinates: [  0.375000000000000,  0.625000000000000,  0.875000000000000 ]
    mass: 39.098300
    reduced_to: 65
  - symbol: K # 123
    coordinates: [  0.625000000000000,  0.625000000000000,  0.875000000000000 ]
    mass: 39.098300
    reduced_to: 65
  - symbol: K # 124
    coordinates: [  0.875000000000000,  0.625000000000000,  0.875000000000000 ]
    mass: 39.098300
    reduced_to: 65
  - symbol: K # 125
    coordinates: [  0.125000000000000,  0.875000000000000,  0.875000000000000 ]
    mass: 39.098300
    reduced_to: 65
  - symbol: K # 126
    coordinates: [  0.375000000000000,  0.875000000000000,  0.875000000000000 ]
    mass: 39.098300
    reduced_to: 65
  - symbol: K # 127
    coordinates: [  0.625000000000000,  0.875000000000000,  0.875000000000000 ]
    mass: 39.098300
    reduced_to: 65
  - symbol: K # 128
    coordinates: [  0.875000000000000,  0.875000000000000,  0.875000000000000 ]
    mass: 39.098300
    reduced_to: 65
  - symbol: O # 129
    coordinates: [  0.182652503250000,  0.182652503250000,  0.182652503250000 ]
    mass: 15.999400
    reduced_to: 129
  - symbol: O # 130
    coordinates: [  0.432652503250000,  0.182652503250000,  0.182652503250000 ]
    mass: 15.999400
    reduced_to: 129
  - symbol: O # 131
    coordinates: [  0.682652503250000,  0.182652503250000,  0.182652503250000 ]
    mass: 15.999400
    reduced_to: 129
  - symbol: O # 132
    coordinates: [  0.932652503250000,  0.182652503250000,  0.182652503250000 ]
    mass: 15.999400
    reduced_to: 129
  - symbol: O # 133
    coordinates: [  0.182652503250000,  0.432652503250000,  0.182652503250000 ]
    mass: 15.999400
    reduced_to: 129
  - symbol: O # 134
    coordinates: [  0.432652503250000,  0.432652503250000,  0.182652503250000 ]
    mass: 15.999400
    reduced_to: 129
  - symbol: O # 135
    coordinates: [  0.682652503250000,  0.432652503250000,  0.182652503250000 ]
    mass: 15.999400
    reduced_to: 129
  - symbol: O # 136
    coordinates: [  0.932652503250000,  0.432652503250000,  0.182652503250000 ]
    mass: 15.999400
    reduced_to: 129
  - symbol: O # 137
    coordinates: [  0.182652503250000,  0.682652503250000,  0.182652503250000 ]
    mass: 15.999400
    reduced_to: 129
  - symbol: O # 138
    coordinates: [  0.432652503250000,  0.682652503250000,  0.182652503250000 ]
    mass: 15.999400
    reduced_to: 129
  - symbol: O # 139
    coordinates: [  0.682652503250000,  0.682652503250000,  0.182652503250000 ]
    mass: 15.999400
    reduced_to: 129
  - symbol: O # 140
    coordinates: [  0.932652503250000,  0.682652503250000,  0.182652503250000 ]
    mass: 15.999400
    reduced_to: 129
  - symbol: O # 141
    coordinates: [  0.182652503250000,  0.932652503250000,  0.182652503250000 ]
    mass: 15.999400
    reduced_to: 129
  - symbol: O # 142
    coordinates: [  0.432652503250000,  0.932652503250000,  0.182652503250000 ]
    mass: 15.999400
    reduced_to: 129
  - symbol: O # 143
    coordinates: [  0.682652503250000,  0.932652503250000,  0.182652503250000 ]
    mass: 15.999400
    reduced_to: 129
  - symbol: O # 144
    coordinates: [  0.932652503250000,  0.932652503250000,  0.182652503250000 ]
    mass: 15.999400
    reduced_to: 129
  - symbol: O # 145
    coordinates: [  0.182652503250000,  0.182652503250000,  0.432652503250000 ]
    mass: 15.999400
    reduced_to: 129
  - symbol: O # 146
    coordinates: [  0.432652503250000,  0.182652503250000,  0.432652503250000 ]
    mass: 15.999400
    reduced_to: 129
  - symbol: O # 147
    coordinates: [  0.682652503250000,  0.182652503250000,  0.432652503250000 ]
    mass: 15.999400
    reduced_to: 129
  - symbol: O # 148
    coordinates: [  0.932652503250000,  0.182652503250000,  0.432652503250000 ]
    mass: 15.999400
    reduced_to: 129
  - symbol: O # 149
    coordinates: [  0.182652503250000,  0.432652503250000,  0.432652503250000 ]
    mass: 15.999400
    reduced_to: 129
  - symbol: O # 150
    coordinates: [  0.432652503250000,  0.432652503250000,  0.432652503250000 ]
    mass: 15.999400
    reduced_to: 129
  - symbol: O # 151
    coordinates: [  0.682652503250000,  0.432652503250000,  0.432652503250000 ]
    mass: 15.999400
    reduced_to: 129
  - symbol: O # 152
    coordinates: [  0.932652503250000,  0.432652503250000,  0.432652503250000 ]
    mass: 15.999400
    reduced_to: 129
  - symbol: O # 153
    coordinates: [  0.182652503250000,  0.682652503250000,  0.432652503250000 ]
    mass: 15.999400
    reduced_to: 129
  - symbol: O # 154
    coordinates: [  0.432652503250000,  0.682652503250000,  0.432652503250000 ]
    mass: 15.999400
    reduced_to: 129
  - symbol: O # 155
    coordinates: [  0.682652503250000,  0.682652503250000,  0.432652503250000 ]
    mass: 15.999400
    reduced_to: 129
  - symbol: O # 156
    coordinates: [  0.932652503250000,  0.682652503250000,  0.432652503250000 ]
    mass: 15.999400
    reduced_to: 129
  - symbol: O # 157
    coordinates: [  0.182652503250000,  0.932652503250000,  0.432652503250000 ]
    mass: 15.999400
    reduced_to: 129
  - symbol: O # 158
    coordinates: [  0.432652503250000,  0.932652503250000,  0.432652503250000 ]
    mass: 15.999400
    reduced_to: 129
  - symbol: O # 159
    coordinates: [  0.682652503250000,  0.932652503250000,  0.432652503250000 ]
    mass: 15.999400
    reduced_to: 129
  - symbol: O # 160
    coordinates: [  0.932652503250000,  0.932652503250000,  0.432652503250000 ]
    mass: 15.999400
    reduced_to: 129
  - symbol: O # 161
    coordinates: [  0.182652503250000,  0.182652503250000,  0.682652503250000 ]
    mass: 15.999400
    reduced_to: 129
  - symbol: O # 162
    coordinates: [  0.432652503250000,  0.182652503250000,  0.682652503250000 ]
    mass: 15.999400
    reduced_to: 129
  - symbol: O # 163
    coordinates: [  0.682652503250000,  0.182652503250000,  0.682652503250000 ]
    mass: 15.999400
    reduced_to: 129
  - symbol: O # 164
    coordinates: [  0.932652503250000,  0.182652503250000,  0.682652503250000 ]
    mass: 15.999400
    reduced_to: 129
  - symbol: O # 165
    coordinates: [  0.182652503250000,  0.432652503250000,  0.682652503250000 ]
    mass: 15.999400
    reduced_to: 129
  - symbol: O # 166
    coordinates: [  0.432652503250000,  0.432652503250000,  0.682652503250000 ]
    mass: 15.999400
    reduced_to: 129
  - symbol: O # 167
    coordinates: [  0.682652503250000,  0.432652503250000,  0.682652503250000 ]
    mass: 15.999400
    reduced_to: 129
  - symbol: O # 168
    coordinates: [  0.932652503250000,  0.432652503250000,  0.682652503250000 ]
    mass: 15.999400
    reduced_to: 129
  - symbol: O # 169
    coordinates: [  0.182652503250000,  0.682652503250000,  0.682652503250000 ]
    mass: 15.999400
    reduced_to: 129
  - symbol: O # 170
    coordinates: [  0.432652503250000,  0.682652503250000,  0.682652503250000 ]
    mass: 15.999400
    reduced_to: 129
  - symbol: O # 171
    coordinates: [  0.682652503250000,  0.682652503250000,  0.682652503250000 ]
    mass: 15.999400
    reduced_to: 129
  - symbol: O # 172
    coordinates: [  0.932652503250000,  0.682652503250000,  0.682652503250000 ]
    mass: 15.999400
    reduced_to: 129
  - symbol: O # 173
    coordinates: [  0.182652503250000,  0.932652503250000,  0.682652503250000 ]
    mass: 15.999400
    reduced_to: 129
  - symbol: O # 174
    coordinates: [  0.432652503250000,  0.932652503250000,  0.682652503250000 ]
    mass: 15.999400
    reduced_to: 129
  - symbol: O # 175
    coordinates: [  0.682652503250000,  0.932652503250000,  0.682652503250000 ]
    mass: 15.999400
    reduced_to: 129
  - symbol: O # 176
    coordinates: [  0.932652503250000,  0.932652503250000,  0.682652503250000 ]
    mass: 15.999400
    reduced_to: 129
  - symbol: O # 177
    coordinates: [  0.182652503250000,  0.182652503250000,  0.932652503250000 ]
    mass: 15.999400
    reduced_to: 129
  - symbol: O # 178
    coordinates: [  0.432652503250000,  0.182652503250000,  0.932652503250000 ]
    mass: 15.999400
    reduced_to: 129
  - symbol: O # 179
    coordinates: [  0.682652503250000,  0.182652503250000,  0.932652503250000 ]
    mass: 15.999400
    reduced_to: 129
  - symbol: O # 180
    coordinates: [  0.932652503250000,  0.182652503250000,  0.932652503250000 ]
    mass: 15.999400
    reduced_to: 129
  - symbol: O # 181
    coordinates: [  0.182652503250000,  0.432652503250000,  0.932652503250000 ]
    mass: 15.999400
    reduced_to: 129
  - symbol: O # 182
    coordinates: [  0.432652503250000,  0.432652503250000,  0.932652503250000 ]
    mass: 15.999400
    reduced_to: 129
  - symbol: O # 183
    coordinates: [  0.682652503250000,  0.432652503250000,  0.932652503250000 ]
    mass: 15.999400
    reduced_to: 129
  - symbol: O # 184
    coordinates: [  0.932652503250000,  0.432652503250000,  0.932652503250000 ]
    mass: 15.999400
    reduced_to: 129
  - symbol: O # 185
    coordinates: [  0.182652503250000,  0.682652503250000,  0.932652503250000 ]
    mass: 15.999400
    reduced_to: 129
  - symbol: O # 186
    coordinates: [  0.432652503250000,  0.682652503250000,  0.932652503250000 ]
    mass: 15.999400
    reduced_to: 129
  - symbol: O # 187
    coordinates: [  0.682652503250000,  0.682652503250000,  0.932652503250000 ]
    mass: 15.999400
    reduced_to: 129
  - symbol: O # 188
    coordinates: [  0.932652503250000,  0.682652503250000,  0.932652503250000 ]
    mass: 15.999400
    reduced_to: 129
  - symbol: O # 189
    coordinates: [  0.182652503250000,  0.932652503250000,  0.932652503250000 ]
    mass: 15.999400
    reduced_to: 129
  - symbol: O # 190
    coordinates: [  0.432652503250000,  0.932652503250000,  0.932652503250000 ]
    mass: 15.999400
    reduced_to: 129
  - symbol: O # 191
    coordinates: [  0.682652503250000,  0.932652503250000,  0.932652503250000 ]
    mass: 15.999400
    reduced_to: 129
  - symbol: O # 192
    coordinates: [  0.932652503250000,  0.932652503250000,  0.932652503250000 ]
    mass: 15.999400
    reduced_to: 129
  - symbol: O # 193
    coordinates: [  0.067347496750000,  0.067347496750000,  0.067347496750000 ]
    mass: 15.999400
    reduced_to: 193
  - symbol: O # 194
    coordinates: [  0.317347496750000,  0.067347496750000,  0.067347496750000 ]
    mass: 15.999400
    reduced_to: 193
  - symbol: O # 195
    coordinates: [  0.567347496750000,  0.067347496750000,  0.067347496750000 ]
    mass: 15.999400
    reduced_to: 193
  - symbol: O # 196
    coordinates: [  0.817347496750000,  0.067347496750000,  0.067347496750000 ]
    mass: 15.999400
    reduced_to: 193
  - symbol: O # 197