# epsilon and Z* of atoms 1 3 5
   3.96742570   -0.00000000   -0.00000000   -0.00000000    3.96742570    0.00000000   -0.00000000   -0.00000000    3.99202066 
   4.02678618    0.00000000    0.00000000    0.00000000    4.02678618   -0.00000000    0.00000000    0.00000000    3.78429765 
   1.04898592   -0.00000000   -0.00000000   -0.00000000    1.04898592    0.00000000   -0.00000000   -0.00000000    1.07933480 
  -3.68395122    0.00000000   -0.00000000   -0.00000000   -1.39182089   -0.00000000   -0.00000000    0.00000000   -2.43181622 
