512  
4    

1    
 -0.0036910258050018   0.0036910258050018   0.0085295168100908
   0.0510967000   -0.0503664700   -0.1244821900
  -0.0010326900    0.0020473700    0.0036027400
  -0.0003475500    0.0003485400    0.0009066600
  -0.0020375700    0.0010384700    0.0035827900
   0.0014527400   -0.0017295300    0.0008816200
   0.0000566300   -0.0000487700    0.0008892200
  -0.0003863800    0.0003207600    0.0002853400
  -0.0014226000    0.0010736300   -0.0011733400
   0.0002198000   -0.0002172000    0.0004097700
   0.0000251100    0.0000148200   -0.0000256900
  -0.0002099900    0.0002109200   -0.0003069100
  -0.0000129500   -0.0000173300   -0.0000274300
   0.0017311900   -0.0014526700    0.0008812400
  -0.0010695400    0.0014205600   -0.0011731600
  -0.0003165600    0.0003894500    0.0002890700
   0.0000550300   -0.0000561500    0.0008945400
  -0.0010718900   -0.0016930100    0.0019560800
   0.0009647200    0.0055603300   -0.0027310100
  -0.0001305900    0.0010604200    0.0006076800
  -0.0003467800   -0.0000057600    0.0008052100
  -0.0056308900   -0.0009516500   -0.0027163200
   0.0016972500    0.0010683400    0.0019613300
   0.0000048500    0.0003492900    0.0008007000
  -0.0010582900    0.0001316400    0.0006016700
   0.0001363800   -0.0002993700   -0.0001040600
   0.0002503800   -0.0000074500    0.0005407500
   0.0001551700    0.0002197700    0.0001468000
  -0.0005292900   -0.0000688100   -0.0004845500
   0.0000039900   -0.0002510100    0.0005439700
   0.0003050200   -0.0001359600   -0.0001125800
   0.0000723900    0.0005252500   -0.0004801300
  -0.0002221700   -0.0001526900    0.0001487700
  -0.0002514600   -0.0003178500    0.0006542700
  -0.0000877500   -0.0003025100    0.0000292200
   0.0002139600    0.0015489200   -0.0010323600
   0.0000312600   -0.0003827800    0.0001222900
  -0.0007700000   -0.0003497500    0.0003158100
   0.0006440900   -0.0006568800   -0.0013264200
   0.0003454900    0.0007709100    0.0003076100
  -0.0000397500    0.0000378100    0.0005390400
  -0.0015571300   -0.0002143200   -0.0010306600
   0.0003006800    0.0000856000    0.0000369800
   0.0003164400    0.0002485400    0.0006577400
   0.0003854400   -0.0000290900    0.0001202000
  -0.0008148100   -0.0005942700    0.0004013600
  -0.0000401800    0.0000400700    0.0005400000
   0.0005956800    0.0008139300    0.0003931300
   0.0010015000   -0.0010000900   -0.0010233900
  -0.0007889700   -0.0027059200    0.0025217900
  -0.0002843100   -0.0000071100    0.0008299700
  -0.0003732800    0.0009732000    0.0005324100
   0.0009548700    0.0091703300   -0.0042559800
   0.0000074900   -0.0003208300    0.0005720100
  -0.0002581500   -0.0000880900    0.0001089700
  -0.0001085300    0.0005242000   -0.0005587600
   0.0001844300   -0.0000990300   -0.0001725400
   0.0000953500   -0.0001845100   -0.0001687200
  -0.0005245400    0.0001027100   -0.0005599800
   0.0000893900    0.0002507100    0.0001054800
   0.0003170300   -0.0000071100    0.0005709200
  -0.0091719100   -0.0009566300   -0.0042783100
  -0.0009796900    0.0003794000    0.0005401800
   0.0000095000    0.0002833300    0.0008351300
   0.0026946600    0.0007915700    0.0025078500
   0.0234075200   -0.0031237700    0.0000077400
   0.0003660400    0.0003647000    0.0017105500
  -0.0003261100    0.0002806200    0.0006310400
  -0.0039190000    0.0008373000    0.0000140400
   0.0004148600   -0.0002721100    0.0005095300
   0.0001574000    0.0000808000    0.0004030300
  -0.0002107600    0.0001957200   -0.0002184700
  -0.0003543000   -0.0001488100   -0.0006320900
   0.0002753200   -0.0004171600    0.0005096600
   0.0001519000    0.0003456000   -0.0006340900
  -0.0001893400    0.0002067700   -0.0002163100
  -0.0000766100   -0.0001590400    0.0004003600
   0.0030926000   -0.0233310300    0.0001030600
  -0.0008345900    0.0039443400    0.0000070700
  -0.0002780100    0.0003307100    0.0006313500
  -0.0003676400   -0.0003633500    0.0016963200
  -0.0021608000   -0.0016043500   -0.0002744500
   0.0016042800    0.0021683200   -0.0002887900
   0.0001083200    0.0004158700    0.0005569700
  -0.0004123400   -0.0001115000    0.0005501300
  -0.0000337900   -0.0002538100   -0.0009657400
   0.0005655300    0.0001677800    0.0007656500
   0.0002270700    0.0001862100    0.0004344900
  -0.0006571800   -0.0001459400   -0.0005433400
  -0.0001943100   -0.0001830800    0.0004821200
   0.0001854600    0.0001965000    0.0004825900
   0.0006173900    0.0004183700   -0.0004029200
  -0.0004175600   -0.0006211600   -0.0004004200
  -0.0001689900   -0.0005615200    0.0007614800
   0.0002499100    0.0000185000   -0.0009603000
   0.0001427500    0.0006558800   -0.0005428000
  -0.0001853100   -0.0002287300    0.0004334800
  -0.0002307400   -0.0002512500    0.0004450500
  -0.0001793600   -0.0001182900   -0.0002901500
   0.0001490900    0.0006571800   -0.0005410300
   0.0001095600   -0.0002399500    0.0002705400
  -0.0006586600   -0.0001500100   -0.0005357700
   0.0001150000    0.0001825900   -0.0002908400
   0.0002528600    0.0002323500    0.0004450000
   0.0002327900   -0.0001134800    0.0002670700
  -0.0027059800   -0.0002476800    0.0001888900
  -0.0001924700    0.0001569100    0.0006360300
   0.0004223500    0.0005802500    0.0010033000
   0.0027841900   -0.0009344500   -0.0021363300
  -0.0005824500   -0.0004198000    0.0010091500
  -0.0001609400    0.0001964800    0.0006303800
   0.0002521900    0.0026869500    0.0001960400
   0.0009357900   -0.0027945800   -0.0021403700
   0.0003698900   -0.0005510000    0.0013092300
  -0.0001765400    0.0000798800    0.0005515300
  -0.0006506600    0.0008850900   -0.0000651100
  -0.0001646800   -0.0010159100   -0.0024297600
   0.0001313600   -0.0001578100    0.0002405000
  -0.0002089700    0.0000926400   -0.0002569800
  -0.0000937600    0.0002077300   -0.0002562200
   0.0001620400   -0.0001344200    0.0002461400
   0.0010206300    0.0001704900   -0.0024251500
  -0.0008840000    0.0006480900   -0.0000573600
  -0.0000794100    0.0001769200    0.0005495900
   0.0005517000   -0.0003647700    0.0013044600
  -0.0268729200   -0.0031450700    0.0218708000
  -0.0007332400    0.0003130900    0.0012619400
  -0.0003130500    0.0007215600    0.0012502800
   0.0030727700    0.0265496800    0.0215782300
   0.0003845400   -0.0001418200    0.0025604000
  -0.0000541000    0.0000555900    0.0002932300
  -0.0002796700    0.0002603400    0.0002097800
  -0.0057736400    0.0051083300   -0.0030741600
   0.0000713300   -0.0000453500    0.0001581200
  -0.0000269000    0.0000401400    0.0000402600
  -0.0001314600    0.0000905400   -0.0001195300
   0.0000738500   -0.0001350300   -0.0000608400
   0.0001286000   -0.0000784900   -0.0000622000
  -0.0000931400    0.0001294000   -0.0001194100
  -0.0000443600    0.0000276900    0.0000390800
   0.0000487200   -0.0000674500    0.0001580000
  -0.0051152200    0.0057972200   -0.0031187400
  -0.0002598200    0.0002793300    0.0002119600
  -0.0000551800    0.0000547100    0.0002929800
   0.0001415900   -0.0003745800    0.0025549200
   0.0018951400   -0.0019412700   -0.0028372900
   0.0001409800    0.0004325300    0.0002990000
  -0.0000586200    0.0000586000    0.0001917200
  -0.0004318300   -0.0001404300    0.0002962000
   0.0003728400   -0.0000812100    0.0000944800
   0.0000806300    0.0000447100    0.0002195800
  -0.0000576600    0.0000648800    0.0000403200
  -0.0003790600   -0.0000105200   -0.0002867200
   0.0000389000   -0.0000402600    0.0001295300
   0.0000827800    0.0000748800    0.0000112300
  -0.0000147400    0.0000133100   -0.0001315000
  -0.0000723800   -0.0000831600    0.0000128100
   0.0000847600   -0.0003810300    0.0000947200
   0.0000146300    0.0003772500   -0.0002857400
  -0.0000622600    0.0000562900    0.0000400600
  -0.0000471500   -0.0000807500    0.0002180800
  -0.0001575400   -0.0001955200    0.0000870500
   0.0001315900    0.0002476400   -0.0002479800
   0.0000589600    0.0000913000   -0.0000043700
  -0.0000433500   -0.0000555700    0.0001426900
  -0.0002536800   -0.0001365900   -0.0002489800
   0.0001913900    0.0001598100    0.0000888500
   0.0000555000    0.0000419000    0.0001418400
  -0.0000934300   -0.0000572400   -0.0000055200
  -0.0001386800   -0.0000318600    0.0000913000
   0.0000486300    0.0000662300    0.0001823000
   0.0002526400    0.0001477900    0.0000614400
  -0.0002688300   -0.0003083400   -0.0002834700
  -0.0000669100   -0.0000470200    0.0001841900
   0.0000354800    0.0001424400    0.0000903600
   0.0003138300    0.0002651400   -0.0002824000
  -0.0001454600   -0.0002507400    0.0000618600
  -0.0000433000   -0.0000588800    0.0002349400
  -0.0000910300    0.0000750300    0.0000740800
  -0.0001682100    0.0003995300   -0.0002445500
   0.0001442700   -0.0003836900   -0.0001033900
  -0.0000555000   -0.0000479700   -0.0000007800
  -0.0000537200    0.0000574600   -0.0001085800
   0.0000480600    0.0000559300    0.0000005300
   0.0000422400   -0.0000419300    0.0000938900
  -0.0003955500    0.0001665200   -0.0002452300
  -0.0000722200    0.0000871400    0.0000774700
   0.0000588000    0.0000405200    0.0002351400
   0.0003846400   -0.0001437600   -0.0001053400
  -0.0006122700   -0.0000849500    0.0005500000
  -0.0000748900    0.0000729200    0.0002367900
   0.0000854800    0.0006091000    0.0005441900
   0.0026046700   -0.0025711000   -0.0033549600
   0.0010570300    0.0070542000    0.0054410200
  -0.0000550900    0.0002065500    0.0003160100
  -0.0002041700    0.0000512100    0.0003127200
  -0.0069747500   -0.0010308300    0.0053858800
   0.0001534200   -0.0000613700    0.0003194800
  -0.0000114800    0.0000419300    0.0001571000
  -0.0002580400    0.0001443300   -0.0000292700
   0.0001610100   -0.0002082600   -0.0005464300
   0.0000671800   -0.0000350200    0.0000731500
   0.0000031100    0.0000629700   -0.0000618500
  -0.0000625500   -0.0000059100   -0.0000621900
   0.0000330400   -0.0000743600    0.0000713200
   0.0002124700   -0.0001668100   -0.0005471200
  -0.0001378600    0.0002531500   -0.0000265700
  -0.0000435600    0.0000116900    0.0001592400
   0.0000646400   -0.0001532900    0.0003182500
   0.0000200500   -0.0004671600   -0.0004419200
   0.0001097400    0.0004399100   -0.0000450600
  -0.0000278600    0.0000329900    0.0001422400
  -0.0001441900   -0.0001123100    0.0002163600
   0.0004623500   -0.0000253200   -0.0004444600
   0.0001142500    0.0001435400    0.0002181100
  -0.0000317600    0.0000238200    0.0001414900
  -0.0004429600   -0.0001129500   -0.0000431600
   0.0000541200   -0.0000276700    0.0001035700
   0.0001059100    0.0000689600    0.0001311300
   0.0000503500    0.0000141200   -0.0001066200
  -0.0001813300   -0.0001547000   -0.0001092400
   0.0000293400   -0.0000566800    0.0001027300
   0.0001506700    0.0001806200   -0.0001118000
  -0.0000124000   -0.0000433300   -0.0001046900
  -0.0000699900   -0.0001034400    0.0001328000
  -0.0000601000   -0.0000518800    0.0001353300
  -0.0000482900    0.0001802500   -0.0000909500
   0.0001152400    0.0001343100   -0.0003228100
  -0.0000306800   -0.0002019000    0.0001883700
  -0.0001382900   -0.0001180900   -0.0000958300
   0.0001189500    0.0001408900   -0.0000966900
   0.0000606000    0.0000382000    0.0000953600
  -0.0000360900   -0.0000560100    0.0000941900
  -0.0001834400    0.0000538600   -0.0000902300
   0.0000538400    0.0000666900    0.0001344600
   0.0001981300    0.0000317000    0.0001869900
  -0.0001290600   -0.0001162700   -0.0003221500
  -0.0001196100   -0.0000303800    0.0002027400
   0.0000261500    0.0001182800    0.0002001400
   0.0008289400    0.0006714200   -0.0000032400
  -0.0006724500   -0.0008308400   -0.0000046500
  -0.0000612300   -0.0000648800    0.0006027300
  -0.0000941400    0.0000870200    0.0001926500
  -0.0005967400    0.0009695700    0.0000975200
   0.0010520100   -0.0056629900   -0.0000072800
  -0.0000100000   -0.0000357100    0.0001169800
  -0.0000794500    0.0000613300   -0.0000428600
  -0.0000140500    0.0000694200   -0.0001741700
   0.0000930500   -0.0001456700    0.0000927500
  -0.0000693900    0.0000140600   -0.0001750100
  -0.0000646300    0.0000809900   -0.0000418700
   0.0000366600    0.0000092900    0.0001178300
   0.0001420800   -0.0000920600    0.0000908500
  -0.0009727200    0.0005972400    0.0001002600
  -0.0000864500    0.0000959700    0.0001960000
   0.0000642900    0.0000638400    0.0006001900
   0.0056449800   -0.0010366700    0.0000080200
  -0.0065122600    0.0040241300    0.0220347900
   0.0002729800   -0.0002398600    0.0000091800
   0.0004224600   -0.0001695900    0.0009185600
   0.0050870300   -0.0026223900   -0.0016304000
  -0.0004557800    0.0001967900    0.0010530900
   0.0000265600   -0.0000166200    0.0010662500
   0.0004491700   -0.0001568400    0.0014528800
   0.0000917600    0.0001212500    0.0024256600
  -0.0002545000    0.0000906500    0.0012630600
   0.0000760800   -0.0000745000    0.0016439700
   0.0001689300   -0.0000700900    0.0016723000
  -0.0000597800    0.0000417300    0.0013950100
  -0.0032033200    0.0017960300    0.0023845100
   0.0011429600   -0.0006471700    0.0018280900
   0.0002054100   -0.0000909100    0.0012074100
  -0.0001551700    0.0001409900    0.0006796900
   0.0022054200    0.0029592100    0.0006131800
  -0.0006736100   -0.0016214300    0.0016635700
   0.0001151900   -0.0001787000    0.0010635800
   0.0005498500    0.0000603500    0.0009033800
  -0.0032785200    0.0002824700    0.0045132400
  -0.0005362200   -0.0001090700    0.0006622100
   0.0000620200   -0.0000877200    0.0010692500
   0.0015386900   -0.0000855500    0.0012707500
  -0.0001170100    0.0000785600    0.0013853000
  -0.0002125200   -0.0000380800    0.0012056800
  -0.0001206500   -0.0000750700    0.0015285200
   0.0003781800    0.0001071000    0.0018156500
  -0.0000927700    0.0001888800    0.0011117300
  -0.0003444800   -0.0000720900    0.0018051900
   0.0001179600   -0.0001442400    0.0017439300
   0.0001596200    0.0000645000    0.0012889800
   0.0002756100    0.0001485200    0.0011034800
   0.0000148100    0.0000372200    0.0017127700
  -0.0002168500   -0.0002999600    0.0019960600
   0.0000618300    0.0000908100    0.0012711800
   0.0010412500    0.0002314100    0.0014703900
  -0.0008489900   -0.0002116000    0.0021470800
  -0.0002159200   -0.0001381300    0.0012208600
   0.0001146800    0.0000194500    0.0011749400
   0.0010910300    0.0000783600    0.0021514600
  -0.0001800100   -0.0000511500    0.0012898100
  -0.0003960300   -0.0001211500    0.0010837800
  -0.0003365500    0.0001356900    0.0016770300
   0.0003804900    0.0001139400    0.0011538700
  -0.0000361700   -0.0000678300    0.0011669200
  -0.0008804900   -0.0004749500    0.0014257100
   0.0001995500    0.0005445800    0.0021099000
   0.0001903000    0.0003244300    0.0004056800
   0.0002195300   -0.0000389000    0.0010637800
   0.0005482200   -0.0005833900    0.0013403800
  -0.0006684100    0.0001511000    0.0041910300
   0.0000698700    0.0000822000    0.0011984300
   0.0002505400    0.0000083300    0.0015646000
  -0.0000696600   -0.0001526100    0.0018328700
  -0.0001622000    0.0000495700    0.0014272500
   0.0001554900    0.0000119900    0.0018788500
   0.0003774400   -0.0001080300    0.0017648900
  -0.0001056900   -0.0000685600    0.0013044400
  -0.0005118600    0.0000686500    0.0010921700
   0.0062121900    0.0002860000    0.0016907700
   0.0004422400   -0.0000902700    0.0010618600
  -0.0000917000   -0.0002644400    0.0008250000
  -0.0060881500   -0.0014613900    0.0001321900
  -0.0015226900    0.0004794900    0.0007753600
  -0.0000413300   -0.0001721200    0.0008159600
   0.0002205700   -0.0003397900    0.0012888200
   0.0012970100   -0.0006605900    0.0024333800
  -0.0000926300    0.0001319200    0.0012813100
  -0.0000358900   -0.0001405600    0.0014685200
   0.0001047700   -0.0000980500    0.0018306200
   0.0000069800    0.0002188700    0.0018305300
  -0.0002583600    0.0006711600    0.0013645800
   0.0001210200   -0.0008028900    0.0021384300
   0.0000812800   -0.0001153700    0.0016231800
  -0.0000147700    0.0002114300    0.0012551800
  -0.0036051800    0.0045718200    0.0141790700
   0.0001258900   -0.0015680900    0.0009499200
   0.0001218700   -0.0001845600    0.0011328400
   0.0008739200    0.0006858400   -0.0002720900
   0.0004763300    0.0015567200    0.0023860000
  -0.0002981500   -0.0009599900    0.0013166600
  -0.0000032200   -0.0001872600    0.0012333900
   0.0003128200    0.0001982600    0.0013027600
  -0.0000537200    0.0001368600    0.0017153200
  -0.0001226200   -0.0001482600    0.0011578300
  -0.0000974200   -0.0001758500    0.0014585400
   0.0003342600    0.0003088400    0.0020793700
   0.0000130200    0.0001301500    0.0012681700
  -0.0001247700   -0.0003296300    0.0013784400
  -0.0001741400   -0.0000888100    0.0020512000
   0.0001433000    0.0004253200    0.0016675500
   0.0001207100    0.0009695300    0.0011316500
  -0.0001530800   -0.0018932300    0.0028005400
  -0.0000041100   -0.0003086800    0.0017042900
   0.0000901800    0.0002042900    0.0012475100
   0.0001465400    0.0002847200    0.0014227400
  -0.0000733600   -0.0001752800    0.0019510600
  -0.0000802900   -0.0003070700    0.0017718200
   0.0000003800    0.0001548800    0.0013587300
   0.0003302000    0.0000009600    0.0020495200
  -0.0000654700   -0.0002320900    0.0016280200
  -0.0001190600   -0.0001292800    0.0012687200
  -0.0000694500    0.0002008200    0.0015940700
   0.0004445300    0.0001361800    0.0011411000
   0.0000150700   -0.0001961800    0.0011664500
  -0.0004781200   -0.0010225900    0.0008978700
   0.0005670100    0.0026188300    0.0034329300
   0.0001033200    0.0001883200    0.0010639300
   0.0000645100   -0.0003348700    0.0012898000
  -0.0001545000   -0.0026397600    0.0021934400
  -0.0000280600    0.0013970800    0.0018159800
  -0.0000375400    0.0002100700    0.0009924000
   0.0000862500   -0.0001387700    0.0013801100
   0.0002203800   -0.0007166100    0.0018708700
  -0.0001378400    0.0007967400    0.0021761600
  -0.0000213800    0.0001176700    0.0015741800
   0.0001022200   -0.0002056600    0.0018413100
  -0.0000092800   -0.0001182000    0.0016711100
  -0.0000875500    0.0001518400    0.0013828800
   0.0013927400   -0.0017247700    0.0033901200
   0.0002230200   -0.0004406800    0.0014627700
  -0.0000107100   -0.0001404100    0.0011430600
  -0.0011264700    0.0006854800    0.0001926900
   0.0011794800    0.0004872600   -0.0025289600
   0.0001361500   -0.0002016500    0.0009382100
   0.0003407300   -0.0013132600    0.0006627700
  -0.0036355400    0.0150444000    0.0140651800
  -0.0044461200    0.0035826200    0.0109232500
  -0.0006952500   -0.0008689100   -0.0034917900
   0.0001791200   -0.0001252600   -0.0020949800
   0.0015605300   -0.0001295600   -0.0022749300
  -0.0006674000    0.0002563800   -0.0018563800
  -0.0002128000    0.0000162400   -0.0019681900
   0.0001162000   -0.0000792500   -0.0015982800
   0.0008010500   -0.0001222000   -0.0010870800
  -0.0001351900    0.0000965000   -0.0019343400
  -0.0002191800   -0.0000033400   -0.0013968200
   0.0001062500   -0.0001064100   -0.0013881300
   0.0001402200    0.0000410000   -0.0017641000
  -0.0004801100    0.0015279500   -0.0024563600
   0.0006345900   -0.0012900600   -0.0007677900
   0.0003461600   -0.0002248200   -0.0019398500
   0.0001747500    0.0000308400   -0.0023994400
   0.0009672000    0.0002940000   -0.0019113500
  -0.0015413000   -0.0004615800   -0.0008279900
  -0.0002025600   -0.0003172600   -0.0019111300
   0.0001875400   -0.0000047800   -0.0019858100
   0.0019186900    0.0001535800   -0.0004096700
  -0.0009627100   -0.0001173700   -0.0020968000
  -0.0002028400   -0.0000922000   -0.0019780500
   0.0003112200   -0.0000061900   -0.0015164300
   0.0003333900    0.0001288200   -0.0018446600
  -0.0001264800   -0.0000092800   -0.0019574400
  -0.0004240600   -0.0001462400   -0.0015553500
   0.0000935200    0.0001742200   -0.0011784200
   0.0001484200    0.0001352300   -0.0020694700
  -0.0001332300    0.0000604900   -0.0015231000
  -0.0003170000   -0.0003330800   -0.0011367000
   0.0001769600    0.0000994500   -0.0017837000
   0.0001290000    0.0001292900   -0.0019570500
   0.0002352300    0.0000757800   -0.0015997100
   0.0000049300   -0.0003372600   -0.0011748400
  -0.0002009300    0.0000707200   -0.0016292900
   0.0003098300    0.0000769500   -0.0014396300
   0.0001822000    0.0000795100   -0.0012713300
  -0.0002834100   -0.0001542600   -0.0018090700
  -0.0001576800   -0.0000041600   -0.0018623700
   0.0026319100    0.0001492200   -0.0010115600
   0.0003327200   -0.0000647400   -0.0019314400
  -0.0001848100   -0.0001072900   -0.0021598400
  -0.0013986500    0.0000188400   -0.0013994100
   0.0010173700    0.0004804200   -0.0023277000
   0.0001977200   -0.0000153100   -0.0020600300
  -0.0001358100   -0.0004480400   -0.0020815600
  -0.0026290400   -0.0005686800    0.0002075400
  -0.0006917100    0.0011264000   -0.0030237400
   0.0001375800    0.0000119500   -0.0020810900
   0.0004396700   -0.0002282500   -0.0017666200
   0.0017308500   -0.0013924400    0.0001631600
  -0.0001503100    0.0000916400   -0.0018408200
   0.0001136000    0.0000195000   -0.0015448600
   0.0002014200   -0.0001097100   -0.0013816000
  -0.0001160000    0.0000256000   -0.0016514600
  -0.0008035500    0.0001423600   -0.0010468900
   0.0007196000   -0.0002154000   -0.0013511800
   0.0001371200   -0.0000927200   -0.0018520800
  -0.0002089000    0.0000312800   -0.0022356500
  -0.0155506300    0.0035494200    0.0107535900
   0.0013191400   -0.0003431600   -0.0025768700
   0.0002026600   -0.0001389900   -0.0022967800
  -0.0004794700   -0.0011822100   -0.0057241300
  -0.0001489500    0.0001591700   -0.0023233700
   0.0000829900   -0.0002033300   -0.0017961600
   0.0006434300   -0.0011459200   -0.0011739300
  -0.0017858500    0.0031947500   -0.0006000300
  -0.0000362300    0.0000579500   -0.0015982000
   0.0000617200   -0.0001705800   -0.0013226000
   0.0000695000   -0.0000811500   -0.0013634700
  -0.0000839600    0.0002530200   -0.0017351400
  -0.0001285800   -0.0000910100   -0.0005661000
   0.0001677800   -0.0004468200   -0.0015588500
   0.0000154100   -0.0000290300   -0.0019284300
  -0.0001933600    0.0004583300   -0.0019495300
   0.0026392400   -0.0051257200   -0.0046598200
   0.0001695400   -0.0004240300   -0.0020788400
   0.0002402600   -0.0002690700   -0.0029866100
  -0.0040459100    0.0065334700    0.0173967700
  -0.0029704300   -0.0022009400   -0.0023794000
  -0.0000753000   -0.0005482600   -0.0021032100
   0.0001711800   -0.0001118100   -0.0019354900
   0.0016206400    0.0006659400   -0.0013545800
  -0.0001759400    0.0000932000   -0.0018898500
  -0.0000569100   -0.0001612200   -0.0017106700
   0.0001481900   -0.0001244000   -0.0012622100
   0.0000750600    0.0003431600   -0.0011959600
  -0.0000700100    0.0001191000   -0.0016240400
  -0.0001116800   -0.0003738600   -0.0011764800
   0.0000861300    0.0001161400   -0.0014740400
   0.0000380700    0.0002164200   -0.0018031600
  -0.0002832200    0.0032749100    0.0015035700
   0.0000704400   -0.0015426800   -0.0017270600
   0.0000907800   -0.0000696100   -0.0019286600
   0.0001115400    0.0005322100   -0.0023433800
   0.0002303500    0.0008545300   -0.0008558100
  -0.0002257300   -0.0010382400   -0.0015354900
  -0.0000331800   -0.0001212300   -0.0018238000
   0.0001338300    0.0002129900   -0.0017727300
  -0.0000315300   -0.0000111000   -0.0012780100
  -0.0001359900   -0.0002777000   -0.0018987100
  -0.0000895100   -0.0000582500   -0.0017175300
   0.0003022000    0.0002217600   -0.0010049000
   0.0000694900    0.0000423200   -0.0018424200
  -0.0001089800   -0.0003786300   -0.0018492300
  -0.0005483300   -0.0001998400   -0.0008879900
   0.0004771300    0.0008876700   -0.0015766500
   0.0000460000    0.0001831900   -0.0017179100
  -0.0000738400   -0.0010774100   -0.0008654300
  -0.0001503900    0.0003398900   -0.0013266800
   0.0001181500    0.0004034700   -0.0019226400
   0.0000605100    0.0001078300   -0.0016811900
   0.0001154200   -0.0003770600   -0.0012292500
  -0.0000034900   -0.0001596400   -0.0011276100
  -0.0000723400    0.0005128800   -0.0019044200
   0.0001445600    0.0000733200   -0.0011595600
  -0.0000103300   -0.0002518600   -0.0014409000
  -0.0000722100   -0.0000674700   -0.0017959500
  -0.0000495300    0.0001616400   -0.0015647900
   0.0005863600   -0.0005538300   -0.0016645800
   0.0000430700   -0.0002240000   -0.0019380500
  -0.0003191700   -0.0001982200   -0.0025897500
  -0.0001585500    0.0006626200    0.0012016800
   0.0002567600    0.0000937600   -0.0021833100
   0.0000847000   -0.0004467900   -0.0019512800
  -0.0002801500   -0.0061662200   -0.0013106600
   0.0014530400    0.0061226100   -0.0028788100

129  
 -0.0036910258050018   0.0036910258050018   0.0085295168100908
   0.0003707000   -0.0001402300    0.0025511700
  -0.0057470100    0.0051581300   -0.0031206700
  -0.0002491800    0.0002350600    0.0002403000
  -0.0000832000    0.0000848700    0.0002791600
  -0.0051462000    0.0057453200   -0.0030721500
   0.0001452900   -0.0003711700    0.0025522100
  -0.0000780200    0.0000827000    0.0002776100
  -0.0002377900    0.0002497700    0.0002292100
   0.0000949200   -0.0000473200   -0.0000893600
   0.0000590800   -0.0000909100    0.0001803700
  -0.0000457700    0.0000344500    0.0000400200
  -0.0000995800    0.0001363400   -0.0001192300
   0.0000885800   -0.0000606100    0.0001721000
   0.0000452000   -0.0000973200   -0.0000870400
  -0.0001266800    0.0001036000   -0.0001195300
  -0.0000325000    0.0000404200    0.0000400200
  -0.0000703600   -0.0000716300    0.0002316500
   0.0001398900   -0.0004313200   -0.0000806300
  -0.0000444400    0.0004770400   -0.0002187600
  -0.0000810700    0.0000810200    0.0000828400
  -0.0006437900   -0.0000796800    0.0005346900
   0.0025221300   -0.0025681800   -0.0033863800
   0.0000770300    0.0006435200    0.0005323200
  -0.0000837800    0.0000848000    0.0002314300
  -0.0004822700    0.0000440700   -0.0002210300
   0.0004308000   -0.0001378300   -0.0000858300
   0.0000676300    0.0000769600    0.0002277000
  -0.0000847600    0.0000779000    0.0000750100
  -0.0000620600   -0.0000354100   -0.0000015200
   0.0000532800   -0.0000436100    0.0000887600
   0.0000393700    0.0000593400   -0.0000005800
  -0.0000553600    0.0000561400   -0.0001088700
  -0.0001382400   -0.0001603400    0.0000852700
  -0.0000572500   -0.0000602900    0.0001390800
   0.0000483600    0.0000924500   -0.0000044500
   0.0000922000    0.0001781600   -0.0002327400
  -0.0000698400   -0.0000545000    0.0001892000
  -0.0001208700   -0.0002121400    0.0000585300
   0.0001774400    0.0001776000   -0.0003056200
   0.0000335800    0.0001402300    0.0000886500
  -0.0001447200   -0.0000268800    0.0000981500
  -0.0001790200   -0.0001780900   -0.0002983000
   0.0002082600    0.0001217300    0.0000580800
   0.0000478700    0.0000708900    0.0001810300
  -0.0001723500   -0.0000929100   -0.0002322200
  -0.0000956000   -0.0000523400   -0.0000076200
   0.0000633400    0.0000549100    0.0001361400
   0.0001637000    0.0001361500    0.0000836200
   0.0019729200   -0.0019253400   -0.0028016500
  -0.0005002200   -0.0001393800    0.0002673200
  -0.0000633800    0.0000647700    0.0001870400
   0.0001354900    0.0004921500    0.0002693500
   0.0000844600   -0.0004014500    0.0001068900
  -0.0000678600   -0.0000983100    0.0002259900
  -0.0000634900    0.0000591200    0.0000443200
   0.0000438900    0.0004723800   -0.0003137300
   0.0000358800   -0.0000385400    0.0001390300
  -0.0000795300   -0.0000664100    0.0000014100
  -0.0000200500    0.0000176400   -0.0001374900
   0.0000641600    0.0000790800    0.0000032000
   0.0004042500   -0.0000803700    0.0001200400
  -0.0004757300   -0.0000428100   -0.0003081700
  -0.0000545400    0.0000624900    0.0000521800
   0.0001036200    0.0000648900    0.0002181700
  -0.0068958400   -0.0010281200    0.0054176700
   0.0010503500    0.0069821700    0.0054765800
  -0.0001142900    0.0001590500    0.0003077600
  -0.0001607300    0.0001116900    0.0003093300
   0.0000531200   -0.0000791500   -0.0006484200
   0.0003705000   -0.0000572800    0.0004201700
  -0.0000164100    0.0000625800    0.0001582300
  -0.0002624500    0.0001550800   -0.0000287600
   0.0000355000   -0.0000641200    0.0000725300
   0.0000590800   -0.0000379500    0.0000768300
  -0.0000172600    0.0000656100   -0.0000696600
  -0.0000641900    0.0000138300   -0.0000720800
   0.0000596500   -0.0003651900    0.0004192000
   0.0000854700   -0.0000657000   -0.0006421500
  -0.0001543300    0.0002690800   -0.0000381900
  -0.0000606100    0.0000130100    0.0001491200
  -0.0001347400   -0.0001671400    0.0002506100
   0.0001451000   -0.0006741000   -0.0002948700
   0.0001068700    0.0006114400   -0.0001126200
  -0.0000391700    0.0000390000    0.0001357900
  -0.0006094000   -0.0001087100   -0.0001224000
   0.0006759900   -0.0001435300   -0.0002941900
   0.0001641300    0.0001386900    0.0002488100
  -0.0000332400    0.0000376200    0.0001344800
  -0.0001819200   -0.0000671000   -0.0001504300
   0.0000793500   -0.0000200100    0.0001140600
   0.0000773900    0.0000755700    0.0001273900
   0.0000442900    0.0000391100   -0.0001096100
  -0.0000753900   -0.0000754300    0.0001180200
   0.0000262800   -0.0000786900    0.0001141800
   0.0000709400    0.0001891700   -0.0001534400
  -0.0000418600   -0.0000466200   -0.0001143100
  -0.0000558900   -0.0001464600    0.0001606400
  -0.0000626400   -0.0000626200    0.0001460200
   0.0000225400    0.0001845400   -0.0000564100
   0.0001053500   -0.0000353700   -0.0002499800
  -0.0000367600   -0.0000681300    0.0001057200
  -0.0001374300   -0.0001222000   -0.0000924300
   0.0001177600    0.0001372300   -0.0000858000
   0.0000654300    0.0000358600    0.0000983700
   0.0000221800   -0.0001044600   -0.0002573500
  -0.0001810400   -0.0000261300   -0.0000540800
   0.0000665600    0.0000589500    0.0001434100
   0.0001438100    0.0000514900    0.0001601300
  -0.0005809500   -0.0003789000   -0.0001524700