mesh: [    24,    24,    24 ]
nqpoint: 1056   
reciprocal_lattice:
- [  -0.00000000,   0.20926631,   0.09055699 ] # a*
- [   0.20926631,   0.00000000,   0.09055699 ] # b*
- [   0.20926631,   0.20926631,   0.00000000 ] # c*
natom:   8      
lattice:
- [    -2.389300000000000,     2.389300000000000,     5.521385000000000 ] # a
- [     2.389300000000000,    -2.389300000000000,     5.521385000000000 ] # b
- [     2.389300000000000,     2.389300000000000,    -5.521385000000000 ] # c
points:
- symbol: Ce # 1
  coordinates: [  0.000000000000000,  0.000000000000000,  0.000000000000000 ]
  mass: 140.116000
- symbol: Ce # 2
  coordinates: [  0.250000000000000,  0.750000000000000,  0.500000000000000 ]
  mass: 140.116000
- symbol: Na # 3
  coordinates: [  0.500000000000000,  0.500000000000000,  0.000000000000000 ]
  mass: 22.989769
- symbol: Na # 4
  coordinates: [  0.750000000000000,  0.250000000000000,  0.500000000000000 ]
  mass: 22.989769
- symbol: O # 5
  coordinates: [  0.221393940603950,  0.221393940603950,  0.000000000000000 ]
  mass: 15.999400
- symbol: O # 6
  coordinates: [  0.471393940603950,  0.971393940603950,  0.500000000000000 ]
  mass: 15.999400
- symbol: O # 7
  coordinates: [  0.028606059396050,  0.528606059396050,  0.500000000000000 ]
  mass: 15.999400
- symbol: O # 8
  coordinates: [  0.778606059396050,  0.778606059396050,  0.000000000000000 ]
  mass: 15.999400

phonon:
- q-position: [    0.0208333,    0.0208333,    0.0208333 ]
  distance_from_gamma:  0.012895503
  weight: 8    
  band:
  - # 1
    frequency:     0.3458069189
  - # 2
    frequency:     0.3589795965
  - # 3
    frequency:     0.8148253635
  - # 4
    frequency:     2.3147310402
  - # 5
    frequency:     2.5374258089
  - # 6
    frequency:     3.3248037700
  - # 7
    frequency:     3.3628763687
  - # 8
    frequency:     5.8964480387
  - # 9
    frequency:     5.8999720246
  - # 10
    frequency:     5.9359510252
  - # 11
    frequency:     6.4112438054
  - # 12
    frequency:     6.4863746981
  - # 13
    frequency:     7.7267291175
  - # 14
    frequency:     7.7523546023
  - # 15
    frequency:     7.7760756985
  - # 16
    frequency:     8.0443737064
  - # 17
    frequency:     9.1439522988
  - # 18
    frequency:    10.6216888383
  - # 19
    frequency:    10.7430589388
  - # 20
    frequency:    10.7816273501
  - # 21
    frequency:    10.9772737199
  - # 22
    frequency:    11.7101726494
  - # 23
    frequency:    12.1876243371
  - # 24
    frequency:    17.0266939129

- q-position: [    0.0625000,    0.0208333,    0.0208333 ]
  distance_from_gamma:  0.020906713
  weight: 16   
  band:
  - # 1
    frequency:     0.5423505833
  - # 2
    frequency:     0.6116798491
  - # 3
    frequency:     1.2669390966
  - # 4
    frequency:     2.3555226328
  - # 5
    frequency:     2.5936477747
  - # 6
    frequency:     3.3870570241
  - # 7
    frequency:     3.4968305529
  - # 8
    frequency:     5.8432468214
  - # 9
    frequency:     5.9115080238
  - # 10
    frequency:     5.9895233691
  - # 11
    frequency:     6.4105079913
  - # 12
    frequency:     6.5488589688
  - # 13
    frequency:     7.7163673814
  - # 14
    frequency:     7.7775944789
  - # 15
    frequency:     7.7926775203
  - # 16
    frequency:     8.0395701988
  - # 17
    frequency:     9.2108501212
  - # 18
    frequency:    10.4088464650
  - # 19
    frequency:    10.7141985169
  - # 20
    frequency:    10.7420384792
  - # 21
    frequency:    10.9371949908
  - # 22
    frequency:    11.7242692629
  - # 23
    frequency:    12.6014713426
  - # 24
    frequency:    16.9149572213

- q-position: [    0.1041667,    0.0208333,    0.0208333 ]
  distance_from_gamma:  0.029806349
  weight: 16   
  band:
  - # 1
    frequency:     0.7488995428
  - # 2
    frequency:     0.8955851003
  - # 3
    frequency:     1.6976939236
  - # 4
    frequency:     2.3616368935
  - # 5
    frequency:     2.7164039520
  - # 6
    frequency:     3.4707772983
  - # 7
    frequency:     3.6920154088
  - # 8
    frequency:     5.7696526209
  - # 9
    frequency:     5.9279942823
  - # 10
    frequency:     6.0783181253
  - # 11
    frequency:     6.4044284193
  - # 12
    frequency:     6.6487657908
  - # 13
    frequency:     7.6993546646
  - # 14
    frequency:     7.7784024106
  - # 15
    frequency:     7.8186274676
  - # 16
    frequency:     8.0493269120
  - # 17
    frequency:     9.2597302889
  - # 18
    frequency:    10.1229583143
  - # 19
    frequency:    10.6907361869
  - # 20
    frequency:    10.7406597903
  - # 21
    frequency:    10.9071534387
  - # 22
    frequency:    11.7248207064
  - # 23
    frequency:    13.0888565085
  - # 24
    frequency:    16.8739499873

- q-position: [    0.1458333,    0.0208333,    0.0208333 ]
  distance_from_gamma:  0.038990733
  weight: 16   
  band:
  - # 1
    frequency:     0.9434638180
  - # 2
    frequency:     1.1737335983
  - # 3
    frequency:     2.0311496994
  - # 4
    frequency:     2.3670547980
  - # 5
    frequency:     2.9463194854
  - # 6
    frequency:     3.5666292477
  - # 7
    frequency:     3.9134540388
  - # 8
    frequency:     5.6940491201
  - # 9
    frequency:     5.9421849093
  - # 10
    frequency:     6.1907482508
  - # 11
    frequency:     6.4149234081
  - # 12
    frequency:     6.7414196136
  - # 13
    frequency:     7.6736424619
  - # 14
    frequency:     7.7364194906
  - # 15
    frequency:     7.8714195396
  - # 16
    frequency:     8.0707469999
  - # 17
    frequency:     9.3136765211
  - # 18
    frequency:     9.8747000602
  - # 19
    frequency:    10.6735927004
  - # 20
    frequency:    10.7439757591
  - # 21
    frequency:    10.8691885967
  - # 22
    frequency:    11.7206485718
  - # 23
    frequency:    13.5885123492
  - # 24
    frequency:    16.8558353033

- q-position: [    0.1875000,    0.0208333,    0.0208333 ]
  distance_from_gamma:  0.048297694
  weight: 16   
  band:
  - # 1
    frequency:     1.1177305800
  - # 2
    frequency:     1.4376033869
  - # 3
    frequency:     2.2633617806
  - # 4
    frequency:     2.3753648549
  - # 5
    frequency:     3.2757434166
  - # 6
    frequency:     3.6626247494
  - # 7
    frequency:     4.1348204366
  - # 8
    frequency:     5.6273242691
  - # 9
    frequency:     5.9512077955
  - # 10
    frequency:     6.3149115043
  - # 11
    frequency:     6.4353468877
  - # 12
    frequency:     6.8171208240
  - # 13
    frequency:     7.6383453095
  - # 14
    frequency:     7.6640732600
  - # 15
    frequency:     7.9349857166
  - # 16
    frequency:     8.1028903622
  - # 17
    frequency:     9.3341378573
  - # 18
    frequency:     9.7341088552
  - # 19
    frequency:    10.6502967165
  - # 20
    frequency:    10.7516109491
  - # 21
    frequency:    10.8337277952
  - # 22
    frequency:    11.7139827525
  - # 23
    frequency:    14.0695822560
  - # 24
    frequency:    16.8494867819

- q-position: [    0.2291667,    0.0208333,    0.0208333 ]
  distance_from_gamma:  0.057667914
  weight: 16   
  band:
  - # 1
    frequency:     1.2684582513
  - # 2
    frequency:     1.6816492274
  - # 3
    frequency:     2.3738873748
  - # 4
    frequency:     2.4631317753
  - # 5
    frequency:     3.6350928203
  - # 6
    frequency:     3.7494976745
  - # 7
    frequency:     4.3364697536
  - # 8
    frequency:     5.5811071996
  - # 9
    frequency:     5.9543614952
  - # 10
    frequency:     6.4386621151
  - # 11
    frequency:     6.4602645509
  - # 12
    frequency:     6.8692352730
  - # 13
    frequency:     7.5734617253
  - # 14
    frequency:     7.5951486354
  - # 15
    frequency:     8.0053492028
  - # 16
    frequency:     8.1440898484
  - # 17
    frequency:     9.2560154120
  - # 18
    frequency:     9.7637946593
  - # 19
    frequency:    10.6179439126
  - # 20
    frequency:    10.7349723684
  - # 21
    frequency:    10.8352824585
  - # 22
    frequency:    11.7059448986
  - # 23
    frequency:    14.5117459505
  - # 24
    frequency:    16.8491344247

- q-position: [    0.2708333,    0.0208333,    0.0208333 ]
  distance_from_gamma:  0.067074887
  weight: 16   
  band:
  - # 1
    frequency:     1.3945284781
  - # 2
    frequency:     1.8990399543
  - # 3
    frequency:     2.3847319597
  - # 4
    frequency:     2.6510984656
  - # 5
    frequency:     3.8205227800
  - # 6
    frequency:     3.9570028979
  - # 7
    frequency:     4.5117799426
  - # 8
    frequency:     5.5690980015
  - # 9
    frequency:     5.9535308184
  - # 10
    frequency:     6.4840688299
  - # 11
    frequency:     6.5533751893
  - # 12
    frequency:     6.8978490751
  - # 13
    frequency:     7.4803412397
  - # 14
    frequency:     7.5507725552
  - # 15
    frequency:     8.0773299185
  - # 16
    frequency:     8.1918637760
  - # 17
    frequency:     9.1437040226
  - # 18
    frequency:     9.8821389815
  - # 19
    frequency:    10.5759545895
  - # 20
    frequency:    10.6957305574
  - # 21
    frequency:    10.8721068364
  - # 22
    frequency:    11.6974412403
  - # 23
    frequency:    14.9019203782
  - # 24
    frequency:    16.8482440261

- q-position: [    0.3125000,    0.0208333,    0.0208333 ]
  distance_from_gamma:  0.076505057
  weight: 16   
  band:
  - # 1
    frequency:     1.4957086699
  - # 2
    frequency:     2.0788548722
  - # 3
    frequency:     2.4044540337
  - # 4
    frequency:     2.8492710099
  - # 5
    frequency:     3.8748898198
  - # 6
    frequency:     4.1721139478
  - # 7
    frequency:     4.6844176738
  - # 8
    frequency:     5.6002812904
  - # 9
    frequency:     5.9520485206
  - # 10
    frequency:     6.5066595704
  - # 11
    frequency:     6.6514858318
  - # 12
    frequency:     6.9125886568
  - # 13
    frequency:     7.3877595794
  - # 14
    frequency:     7.5163375870
  - # 15
    frequency:     8.1452920993
  - # 16
    frequency:     8.2421586603
  - # 17
    frequency:     9.0502233139
  - # 18
    frequency:    10.0142619003
  - # 19
    frequency:    10.5283505804
  - # 20
    frequency:    10.6581817946
  - # 21
    frequency:    10.9142779894
  - # 22
    frequency:    11.6892334699
  - # 23
    frequency:    15.2327697819
  - # 24
    frequency:    16.8402477559

- q-position: [    0.3541667,    0.0208333,    0.0208333 ]
  distance_from_gamma:  0.085950789
  weight: 16   
  band:
  - # 1
    frequency:     1.5724628510
  - # 2
    frequency:     2.2041469015
  - # 3
    frequency:     2.4480236836
  - # 4
    frequency:     3.0500613817
  - # 5
    frequency:     3.9123351628
  - # 6
    frequency:     4.2413968019
  - # 7
    frequency:     4.8779189634
  - # 8
    frequency:     5.6671126484
  - # 9
    frequency:     5.9530395787
  - # 10
    frequency:     6.5283726862
  - # 11
    frequency:     6.7306194994
  - # 12
    frequency:     6.9268565839
  - # 13
    frequency:     7.2915418879
  - # 14
    frequency:     7.4976971024
  - # 15
    frequency:     8.2042783138
  - # 16
    frequency:     8.2891303608
  - # 17
    frequency:     8.9836113503
  - # 18
    frequency:    10.1290250634
  - # 19
    frequency:    10.4848167615
  - # 20
    frequency:    10.6275556548
  - # 21
    frequency:    10.9502487242
  - # 22
    frequency:    11.6819501839
  - # 23
    frequency:    15.5004417574
  - # 24
    frequency:    16.8214711367

- q-position: [    0.3958333,    0.0208333,    0.0208333 ]
  distance_from_gamma:  0.095407461
  weight: 16   
  band:
  - # 1
    frequency:     1.6259971847
  - # 2
    frequency:     2.2690970511
  - # 3
    frequency:     2.5142433696
  - # 4
    frequency:     3.2383960367
  - # 5
    frequency:     3.9362596888
  - # 6
    frequency:     4.2079109697
  - # 7
    frequency:     5.0546811999
  - # 8
    frequency:     5.7460566207
  - # 9
    frequency:     5.9575054266
  - # 10
    frequency:     6.5510245596
  - # 11
    frequency:     6.7850941240
  - # 12
    frequency:     6.9506007298
  - # 13
    frequency:     7.1952416290
  - # 14
    frequency:     7.4912399619
  - # 15
    frequency:     8.2502420000
  - # 16
    frequency:     8.3266007604
  - # 17
    frequency:     8.9404811908
  - # 18
    frequency:    10.2087191626
  - # 19
    frequency:    10.4552311896
  - # 20
    frequency:    10.6048673466
  - # 21
    frequency:    10.9777748882
  - # 22
    frequency:    11.6761739362
  - # 23
    frequency:    15.7013877951
  - # 24
    frequency:    16.7941379734

- q-position: [    0.4375000,    0.0208333,    0.0208333 ]
  distance_from_gamma:  0.104872114
  weight: 16   
  band:
  - # 1
    frequency:     1.6576454325
  - # 2
    frequency:     2.2962421772
  - # 3
    frequency:     2.5712492275
  - # 4
    frequency:     3.3870064470
  - # 5
    frequency:     3.9523263824
  - # 6
    frequency:     4.1360521052
  - # 7
    frequency:     5.1726636105
  - # 8
    frequency:     5.8095688323
  - # 9
    frequency:     5.9628308530
  - # 10
    frequency:     6.5722986218
  - # 11
    frequency:     6.8122635779
  - # 12
    frequency:     6.9821904780
  - # 13
    frequency:     7.1138618577
  - # 14
    frequency:     7.4904570724
  - # 15
    frequency:     8.2796672782
  - # 16
    frequency:     8.3502065657
  - # 17
    frequency:     8.9163900461
  - # 18
    frequency:    10.2486159661
  - # 19
    frequency:    10.4424678238
  - # 20
    frequency:    10.5910232776
  - # 21
    frequency:    10.9965783801
  - # 22
    frequency:    11.6724522548
  - # 23
    frequency:    15.8290079254
  - # 24
    frequency:    16.7678699118

- q-position: [    0.4791667,    0.0208333,    0.0208333 ]
  distance_from_gamma:  0.114342765
  weight: 8    
  band:
  - # 1
    frequency:     1.6681399537
  - # 2
    frequency:     2.3037728436
  - # 3
    frequency:     2.5928240376
  - # 4
    frequency:     3.4480217673
  - # 5
    frequency:     3.9611197381
  - # 6
    frequency:     4.0950064210
  - # 7
    frequency:     5.2134131711
  - # 8
    frequency:     5.8342519764
  - # 9
    frequency:     5.9650158419
  - # 10
    frequency:     6.5819413397
  - # 11
    frequency:     6.8201358974
  - # 12
    frequency:     7.0005844893
  - # 13
    frequency:     7.0767224453
  - # 14
    frequency:     7.4907098383
  - # 15
    frequency:     8.2898312150
  - # 16
    frequency:     8.3581698968
  - # 17
    frequency:     8.9086333017
  - # 18
    frequency:    10.2592604279
  - # 19
    frequency:    10.4398509505
  - # 20
    frequency:    10.5864117034
  - # 21
    frequency:    11.0036192363
  - # 22
    frequency:    11.6711685872
  - # 23
    frequency:    15.8734010120
  - # 24
    frequency:    16.7566500648

- q-position: [   -0.0208333,    0.0208333,    0.0208333 ]
  distance_from_gamma:  0.008719430
  weight: 4    
  band:
  - # 1
    frequency:     0.2388928982
  - # 2
    frequency:     0.2906601656
  - # 3
    frequency:     0.5382168838
  - # 4
    frequency:     2.2064293648
  - # 5
    frequency:     2.5209475713
  - # 6
    frequency:     3.2928241385
  - # 7
    frequency:     3.3232604434
  - # 8
    frequency:     5.8934794220
  - # 9
    frequency:     5.9035843607
  - # 10
    frequency:     5.9364528333
  - # 11
    frequency:     6.3522483845
  - # 12
    frequency:     6.5379930086
  - # 13
    frequency:     7.7305841861
  - # 14
    frequency:     7.7339853794
  - # 15
    frequency:     7.7419167770
  - # 16
    frequency:     8.0616891316
  - # 17
    frequency:     9.0448312498
  - # 18
    frequency:    10.7329963830
  - # 19
    frequency:    10.7367591600
  - # 20
    frequency:    10.7432063194
  - # 21
    frequency:    11.0650845683
  - # 22
    frequency:    11.6780594036
  - # 23
    frequency:    12.0074286395
  - # 24
    frequency:    17.2239326781

- q-position: [    0.0625000,    0.0625000,    0.0208333 ]
  distance_from_gamma:  0.027135982
  weight: 8    
  band:
  - # 1
    frequency:     0.7011927768
  - # 2
    frequency:     0.7320078222
  - # 3
    frequency:     1.6464527001
  - # 4
    frequency:     2.4000679017
  - # 5
    frequency:     2.6398762403
  - # 6
    frequency:     3.4640551446
  - # 7
    frequency:     3.5973732186
  - # 8
    frequency:     5.7827695624
  - # 9
    frequency:     5.9215110040
  - # 10
    frequency:     6.0345484634
  - # 11
    frequency:     6.4559853603
  - # 12
    frequency:     6.5619370109
  - # 13
    frequency:     7.7018386905
  - # 14
    frequency:     7.8067182981
  - # 15
    frequency:     7.8123286336
  - # 16
    frequency:     7.9992267746
  - # 17
    frequency:     9.3170455552
  - # 18
    frequency:    10.1552759627
  - # 19
    frequency:    10.6935113398
  - # 20
    frequency:    10.7320075305
  - # 21
    frequency:    11.0105409506
  - # 22
    frequency:    11.7892789086
  - # 23
    frequency:    12.8906097762
  - # 24
    frequency:    16.7855732643

- q-position: [    0.1041667,    0.0625000,    0.0208333 ]
  distance_from_gamma:  0.034873535
  weight: 16   
  band:
  - # 1
    frequency:     0.8648668734
  - # 2
    frequency:     0.9571832461
  - # 3
    frequency:     2.0228924619
  - # 4
    frequency:     2.4289434620
  - # 5
    frequency:     2.7451459053
  - # 6
    frequency:     3.5491691884
  - # 7
    frequency:     3.7619365294
  - # 8
    frequency:     5.7162894793
  - # 9
    frequency:     5.9323693962
  - # 10
    frequency:     6.1063522835
  - # 11
    frequency:     6.4399183519
  - # 12
    frequency:     6.6679103905
  - # 13
    frequency:     7.6804219969
  - # 14
    frequency:     7.7882412806
  - # 15
    frequency:     7.8601840561
  - # 16
    frequency:     7.9865398545
  - # 17
    frequency:     9.3958651553
  - # 18
    frequency:     9.8902069404
  - # 19
    frequency:    10.6864434739
  - # 20
    frequency:    10.7234044838
  - # 21
    frequency:    11.0283986241
  - # 22
    frequency:    11.8248451596
  - # 23
    frequency:    13.2954354369
  - # 24
    frequency:    16.7428024926

- q-position: [    0.1458333,    0.0625000,    0.0208333 ]
  distance_from_gamma:  0.043318547
  weight: 16   
  band:
  - # 1
    frequency:     1.0247731043
  - # 2
    frequency:     1.2112609489
  - # 3
    frequency:     2.2657370965
  - # 4
    frequency:     2.4883102039
  - # 5
    frequency:     2.9783465318
  - # 6
    frequency:     3.6382733750
  - # 7
    frequency:     3.9528413829
  - # 8
    frequency:     5.6525920765
  - # 9
    frequency:     5.9392769146
  - # 10
    frequency:     6.2018290385
  - # 11
    frequency:     6.4373070913
  - # 12
    frequency:     6.7709289220
  - # 13
    frequency:     7.6483261893
  - # 14
    frequency:     7.7318784551
  - # 15
    frequency:     7.9124801602
  - # 16
    frequency:     8.0110526966
  - # 17
    frequency:     9.4492321446
  - # 18
    frequency:     9.6815299050
  - # 19
    frequency:    10.6746562655
  - # 20
    frequency:    10.7302124853
  - # 21
    frequency:    11.0113859934
  - # 22
    frequency:    11.8415288872
  - # 23
    frequency:    13.7456419040
  - # 24
    frequency:    16.7433793587

- q-position: [    0.1875000,    0.0625000,    0.0208333 ]
  distance_from_gamma:  0.052128310
  weight: 16   
  band:
  - # 1
    frequency:     1.1755463906
  - # 2
    frequency:     1.4624441187
  - # 3
    frequency:     2.3697728050
  - # 4
    frequency:     2.5807791046
  - # 5
    frequency:     3.3265014968
  - # 6
    frequency:     3.7265010733
  - # 7
    frequency:     4.1400132924
  - # 8
    frequency:     5.5996730709
  - # 9
    frequency:     5.9447634303
  - # 10
    frequency:     6.3114972916
  - # 11
    frequency:     6.4474864393
  - # 12
    frequency:     6.8529799778
  - # 13
    frequency:     7.5978726323
  - # 14
    frequency:     7.6537407333
  - # 15
    frequency:     7.9586995952
  - # 16
    frequency:     8.0702811654
  - # 17
    frequency:     9.3495930231
  - # 18
    frequency:     9.6845009320
  - # 19
    frequency:    10.6495162876
  - # 20
    frequency:    10.7562351299
  - # 21
    frequency:    10.9791208485
  - # 22
    frequency:    11.8491470437
  - # 23
    frequency:    14.1961349169
  - # 24
    frequency:    16.7640820856

- q-position: [    0.2291667,    0.0625000,    0.0208333 ]
  distance_from_gamma:  0.061145367
  weight: 16   
  band:
  - # 1
    frequency:     1.3123802953
  - # 2
    frequency:     1.6961757345
  - # 3
    frequency:     2.4290686388
  - # 4
    frequency:     2.6936817229
  - # 5
    frequency:     3.6855896939
  - # 6
    frequency:     3.8087514042
  - # 7
    frequency:     4.3071725906
  - # 8
    frequency:     5.5657009818
  - # 9
    frequency:     5.9529595171
  - # 10
    frequency:     6.4252949027
  - # 11
    frequency:     6.4661942232
  - # 12
    frequency:     6.9063763528
  - # 13
    frequency:     7.5214476267
  - # 14
    frequency:     7.5823129499
  - # 15
    frequency:     8.0009493383
  - # 16
    frequency:     8.1490280093
  - # 17
    frequency:     9.1932944501
  - # 18
    frequency:     9.8033979108
  - # 19
    frequency:    10.6129270549
  - # 20
    frequency:    10.7945247358
  - # 21
    frequency:    10.9436732684
  - # 22
    frequency:    11.8526989097
  - # 23
    frequency:    14.6189582276
  - # 24
    frequency:    16.7910278099

- q-position: [    0.2708333,    0.0625000,    0.0208333 ]
  distance_from_gamma:  0.070289987
  weight: 16   
  band:
  - # 1
    frequency:     1.4325302201
  - # 2
    frequency:     1.8985188622
  - # 3
    frequency:     2.4813729079
  - # 4
    frequency:     2.8296394521
  - # 5
    frequency:     3.8694006789
  - # 6
    frequency:     3.9899233561
  - # 7
    frequency:     4.4611543587
  - # 8
    frequency:     5.5578420242
  - # 9
    frequency:     5.9682196012
  - # 10
    frequency:     6.4879478807
  - # 11
    frequency:     6.5398906004
  - # 12
    frequency:     6.9315796634
  - # 13
    frequency:     7.4407078489
  - # 14
    frequency:     7.5173374426
  - # 15
    frequency:     8.0447818572
  - # 16
    frequency:     8.2296384015
  - # 17
    frequency:     9.0708907368
  - # 18
    frequency:     9.9360071872
  - # 19
    frequency:    10.5666246754
  - # 20
    frequency:    10.8381877619
  - # 21
    frequency:    10.9110061818
  - # 22
    frequency:    11.8545674130
  - # 23
    frequency:    14.9967729312
  - # 24
    frequency:    16.8131456952

- q-position: [    0.3125000,    0.0625000,    0.0208333 ]
  distance_from_gamma:  0.079518173
  weight: 16   
  band:
  - # 1
    frequency:     1.5337577005
  - # 2
    frequency:     2.0544423528
  - # 3
    frequency:     2.5423783804
  - # 4
    frequency:     2.9836077681
  - # 5
    frequency:     3.9243856225
  - # 6
    frequency:     4.1546085711
  - # 7
    frequency:     4.6376251011
  - # 8
    frequency:     5.5779063503
  - # 9
    frequency:     5.9931940944
  - # 10
    frequency:     6.5224306291
  - # 11
    frequency:     6.6434797174
  - # 12
    frequency:     6.9398472642
  - # 13
    frequency:     7.3636177364
  - # 14
    frequency:     7.4592391600
  - # 15
    frequency:     8.0908673911
  - # 16
    frequency:     8.2986321401
  - # 17
    frequency:     8.9923109066
  - # 18
    frequency:    10.0559581164
  - # 19
    frequency:    10.5165312692
  - # 20
    frequency:    10.8772923029
  - # 21
    frequency:    10.8861378632
  - # 22
    frequency:    11.8556422510
  - # 23
    frequency:    15.3193710710
  - # 24
    frequency:    16.8221673403

- q-position: [    0.3541667,    0.0625000,    0.0208333 ]
  distance_from_gamma:  0.088803876
  weight: 16   
  band:
  - # 1
    frequency:     1.6142420315
  - # 2
    frequency:     2.1559931190
  - # 3
    frequency:     2.6157262086
  - # 4
    frequency:     3.1413835570
  - # 5
    frequency:     3.9657419984
  - # 6
    frequency:     4.1888962792
  - # 7
    frequency:     4.8282206262
  - # 8
    frequency:     5.6184167354
  - # 9
    frequency:     6.0273485657
  - # 10
    frequency:     6.5703763471
  - # 11
    frequency:     6.7351340196
  - # 12
    frequency:     6.9459091778
  - # 13
    frequency:     7.2764706295
  - # 14
    frequency:     7.4187593810
  - # 15
    frequency:     8.1363634657
  - # 16
    frequency:     8.3474060988
  - # 17
    frequency:     8.9550488476
  - # 18
    frequency:    10.1449383583
  - # 19
    frequency:    10.4720763860
  - # 20
    frequency:    10.8580041224
  - # 21
    frequency:    10.9205681352
  - # 22
    frequency:    11.8560731933
  - # 23
    frequency:    15.5806588808
  - # 24
    frequency:    16.8150187628

- q-position: [    0.3958333,    0.0625000,    0.0208333 ]
  distance_from_gamma:  0.098130770
  weight: 16   
  band:
  - # 1
    frequency:     1.6728251096
  - # 2
    frequency:     2.2112489284
  - # 3
    frequency:     2.6864736498
  - # 4
    frequency:     3.2799589185
  - # 5
    frequency:     4.0008985695
  - # 6
    frequency:     4.1536901644
  - # 7
    frequency:     4.9813295354
  - # 8
    frequency:     5.6637625678
  - # 9
    frequency:     6.0664294786
  - # 10
    frequency:     6.6310175163
  - # 11
    frequency:     6.8052515569
  - # 12
    frequency:     6.9606323497
  - # 13
    frequency:     7.1806183882
  - # 14
    frequency:     7.3948735388
  - # 15
    frequency:     8.1759765052
  - # 16
    frequency:     8.3750754013
  - # 17
    frequency:     8.9496284153
  - # 18
    frequency:    10.1900137138
  - # 19
    frequency:    10.4417665990
  - # 20
    frequency:    10.8391913030
  - # 21
    frequency:    10.9568290310
  - # 22
    frequency:    11.8558853286
  - # 23
    frequency:    15.7751954118
  - # 24
    frequency:    16.7962288498

- q-position: [    0.4375000,    0.0625000,    0.0208333 ]
  distance_from_gamma:  0.107488133
  weight: 16   
  band:
  - # 1
    frequency:     1.7089941841
  - # 2
    frequency:     2.2350651092
  - # 3
    frequency:     2.7318740707
  - # 4
    frequency:     3.3654769009
  - # 5
    frequency:     4.0357957456
  - # 6
    frequency:     4.1073915777
  - # 7
    frequency:     5.0731290484
  - # 8
    frequency:     5.6964730242
  - # 9
    frequency:     6.1001634465
  - # 10
    frequency:     6.6880632774
  - # 11
    frequency:     6.8434039673
  - # 12
    frequency:     6.9904859778
  - # 13
    frequency:     7.0941375508
  - # 14
    frequency:     7.3833355454
  - # 15
    frequency:     8.2025895220
  - # 16
    frequency:     8.3884235657
  - # 17
    frequency:     8.9623577504
  - # 18
    frequency:    10.1947539258
  - # 19
    frequency:    10.4247961775
  - # 20
    frequency:    10.8265151135
  - # 21
    frequency:    10.9884331524
  - # 22
    frequency:    11.8552041976
  - # 23
    frequency:    15.8947934161
  - # 24
    frequency:    16.7786418542

- q-position: [   -0.5208333,    0.0625000,    0.0208333 ]
  distance_from_gamma:  0.113907419
  weight: 16   
  band:
  - # 1
    frequency:     1.7227922785
  - # 2
    frequency:     2.2371856021
  - # 3
    frequency:     2.7358662032
  - # 4
    frequency:     3.3646321236
  - # 5
    frequency:     4.0360180114
  - # 6
    frequency:     4.1320666813
  - # 7
    frequency:     5.1009026472
  - # 8
    frequency:     5.7058354311
  - # 9
    frequency:     6.1129717331
  - # 10
    frequency:     6.7029438197
  - # 11
    frequency:     6.8581444913
  - # 12
    frequency:     7.0180103469
  - # 13
    frequency:     7.0594416634
  - # 14
    frequency:     7.3833092023
  - # 15
    frequency:     8.2095881215
  - # 16
    frequency:     8.3954273865
  - # 17
    frequency:     8.9810319272
  - # 18
    frequency:    10.1763612274
  - # 19
    frequency:    10.4130498598
  - # 20
    frequency:    10.8215766844
  - # 21
    frequency:    11.0086249729
  - # 22
    frequency:    11.8541916152
  - # 23
    frequency:    15.9293563606
  - # 24
    frequency:    16.7785143902

- q-position: [   -0.4791667,    0.0625000,    0.0208333 ]
  distance_from_gamma:  0.104533566
  weight: 16   
  band:
  - # 1
    frequency:     1.7147180676
  - # 2
    frequency:     2.2210262125
  - # 3
    frequency:     2.6932926793
  - # 4
    frequency:     3.2796675103
  - # 5
    frequency:     4.0209119532
  - # 6
    frequency:     4.2093968295
  - # 7
    frequency:     5.0660367226
  - # 8
    frequency:     5.6890153749
  - # 9
    frequency:     6.0988827684
  - # 10
    frequency:     6.6610895577
  - # 11
    frequency:     6.8481961684
  - # 12
    frequency:     7.0055134299
  - # 13
    frequency:     7.1285469998
  - # 14
    frequency:     7.3933546328
  - # 15
    frequency:     8.1957641498
  - # 16
    frequency:     8.3968491607
  - # 17
    frequency:     8.9997101899
  - # 18
    frequency:    10.1431617226
  - # 19
    frequency:    10.4056314619
  - # 20
    frequency:    10.8250517165
  - # 21
    frequency:    11.0124797229
  - # 22
    frequency:    11.8530722006
  - # 23
    frequency:    15.8762270600
  - # 24
    frequency:    16.8022473213

- q-position: [   -0.4375000,    0.0625000,    0.0208333 ]
  distance_from_gamma:  0.095184894
  weight: 16   
  band:
  - # 1
    frequency:     1.6851978672
  - # 2
    frequency:     2.1847792327
  - # 3
    frequency:     2.6100250877
  - # 4
    frequency:     3.1452373288
  - # 5
    frequency:     4.0087350472
  - # 6
    frequency:     4.2784460212
  - # 7
    frequency:     4.9696233263
  - # 8
    frequency:     5.6491765956
  - # 9
    frequency:     6.0712323968
  - # 10
    frequency:     6.5965108878
  - # 11
    frequency:     6.8046553332
  - # 12
    frequency:     7.0001484956
  - # 13
    frequency:     7.2304619930
  - # 14
    frequency:     7.4105882385
  - # 15
    frequency:     8.1659637246
  - # 16
    frequency:     8.3857152957
  - # 17
    frequency:     9.0204947037
  - # 18
    frequency:    10.0879142298
  - # 19
    frequency:    10.4108725833
  - # 20
    frequency:    10.8360472912
  - # 21
    frequency:    11.0003877749
  - # 22
    frequency:    11.8521833548
  - # 23
    frequency:    15.7444722786
  - # 24
    frequency:    16.8403139743

- q-position: [   -0.3958333,    0.0625000,    0.0208333 ]
  distance_from_gamma:  0.085869627
  weight: 16   
  band:
  - # 1