phonopy:
  version: "2.38.0"
  frequency_unit_conversion_factor: 15.633302
  symmetry_tolerance: 1.00000e-05
  configuration:
    create_displacements: ".true."
    dim: "4 4 4"

physical_unit:
  atomic_mass: "AMU"
  length: "angstrom"

space_group:
  type: "I4_1/amd"
  number: 141
  Hall_symbol: "I 4bw 2bw -1bw"

supercell_matrix:
- [   4,   0,   0 ]
- [   0,   4,   0 ]
- [   0,   0,   4 ]

primitive_cell:
  lattice:
  - [    -2.389300000000000,     2.389300000000000,     5.521385000000000 ] # a
  - [     2.389300000000000,    -2.389300000000000,     5.521385000000000 ] # b
  - [     2.389300000000000,     2.389300000000000,    -5.521385000000000 ] # c
  points:
  - symbol: Ce # 1
    coordinates: [  0.000000000000000,  0.000000000000000,  0.000000000000000 ]
    mass: 140.116000
  - symbol: Ce # 2
    coordinates: [  0.250000000000000,  0.750000000000000,  0.500000000000000 ]
    mass: 140.116000
  - symbol: Na # 3
    coordinates: [  0.500000000000000,  0.500000000000000,  0.000000000000000 ]
    mass: 22.989769
  - symbol: Na # 4
    coordinates: [  0.750000000000000,  0.250000000000000,  0.500000000000000 ]
    mass: 22.989769
  - symbol: O # 5
    coordinates: [  0.221393940603950,  0.221393940603950,  0.000000000000000 ]
    mass: 15.999400
  - symbol: O # 6
    coordinates: [  0.471393940603950,  0.971393940603950,  0.500000000000000 ]
    mass: 15.999400
  - symbol: O # 7
    coordinates: [  0.028606059396050,  0.528606059396050,  0.500000000000000 ]
    mass: 15.999400
  - symbol: O # 8
    coordinates: [  0.778606059396050,  0.778606059396050,  0.000000000000000 ]
    mass: 15.999400
  reciprocal_lattice: # without 2pi
  - [    -0.000000000000000,     0.209266312309044,     0.090556988871452 ] # a*
  - [     0.209266312309044,     0.000000000000000,     0.090556988871452 ] # b*
  - [     0.209266312309044,     0.209266312309044,     0.000000000000000 ] # c*

unit_cell:
  lattice:
  - [    -2.389300000000000,     2.389300000000000,     5.521385000000000 ] # a
  - [     2.389300000000000,    -2.389300000000000,     5.521385000000000 ] # b
  - [     2.389300000000000,     2.389300000000000,    -5.521385000000000 ] # c
  points:
  - symbol: Ce # 1
    coordinates: [  0.000000000000000,  0.000000000000000,  0.000000000000000 ]
    mass: 140.116000
    reduced_to: 1
  - symbol: Ce # 2
    coordinates: [  0.250000000000000,  0.750000000000000,  0.500000000000000 ]
    mass: 140.116000
    reduced_to: 2
  - symbol: Na # 3
    coordinates: [  0.500000000000000,  0.500000000000000,  0.000000000000000 ]
    mass: 22.989769
    reduced_to: 3
  - symbol: Na # 4
    coordinates: [  0.750000000000000,  0.250000000000000,  0.500000000000000 ]
    mass: 22.989769
    reduced_to: 4
  - symbol: O # 5
    coordinates: [  0.221393940603950,  0.221393940603950,  0.000000000000000 ]
    mass: 15.999400
    reduced_to: 5
  - symbol: O # 6
    coordinates: [  0.471393940603950,  0.971393940603950,  0.500000000000000 ]
    mass: 15.999400
    reduced_to: 6
  - symbol: O # 7
    coordinates: [  0.028606059396050,  0.528606059396050,  0.500000000000000 ]
    mass: 15.999400
    reduced_to: 7
  - symbol: O # 8
    coordinates: [  0.778606059396050,  0.778606059396050,  0.000000000000000 ]
    mass: 15.999400
    reduced_to: 8

supercell:
  lattice:
  - [    -9.557200000000000,     9.557200000000000,    22.085540000000002 ] # a
  - [     9.557200000000000,    -9.557200000000000,    22.085540000000002 ] # b
  - [     9.557200000000000,     9.557200000000000,   -22.085540000000002 ] # c
  points:
  - symbol: Ce # 1
    coordinates: [  0.000000000000000,  0.000000000000000,  0.000000000000000 ]
    mass: 140.116000
    reduced_to: 1
  - symbol: Ce # 2
    coordinates: [  0.250000000000000,  0.000000000000000,  0.000000000000000 ]
    mass: 140.116000
    reduced_to: 1
  - symbol: Ce # 3
    coordinates: [  0.500000000000000,  0.000000000000000,  0.000000000000000 ]
    mass: 140.116000
    reduced_to: 1
  - symbol: Ce # 4
    coordinates: [  0.750000000000000,  0.000000000000000,  0.000000000000000 ]
    mass: 140.116000
    reduced_to: 1
  - symbol: Ce # 5
    coordinates: [  0.000000000000000,  0.250000000000000,  0.000000000000000 ]
    mass: 140.116000
    reduced_to: 1
  - symbol: Ce # 6
    coordinates: [  0.250000000000000,  0.250000000000000,  0.000000000000000 ]
    mass: 140.116000
    reduced_to: 1
  - symbol: Ce # 7
    coordinates: [  0.500000000000000,  0.250000000000000,  0.000000000000000 ]
    mass: 140.116000
    reduced_to: 1
  - symbol: Ce # 8
    coordinates: [  0.750000000000000,  0.250000000000000,  0.000000000000000 ]
    mass: 140.116000
    reduced_to: 1
  - symbol: Ce # 9
    coordinates: [  0.000000000000000,  0.500000000000000,  0.000000000000000 ]
    mass: 140.116000
    reduced_to: 1
  - symbol: Ce # 10
    coordinates: [  0.250000000000000,  0.500000000000000,  0.000000000000000 ]
    mass: 140.116000
    reduced_to: 1
  - symbol: Ce # 11
    coordinates: [  0.500000000000000,  0.500000000000000,  0.000000000000000 ]
    mass: 140.116000
    reduced_to: 1
  - symbol: Ce # 12
    coordinates: [  0.750000000000000,  0.500000000000000,  0.000000000000000 ]
    mass: 140.116000
    reduced_to: 1
  - symbol: Ce # 13
    coordinates: [  0.000000000000000,  0.750000000000000,  0.000000000000000 ]
    mass: 140.116000
    reduced_to: 1
  - symbol: Ce # 14
    coordinates: [  0.250000000000000,  0.750000000000000,  0.000000000000000 ]
    mass: 140.116000
    reduced_to: 1
  - symbol: Ce # 15
    coordinates: [  0.500000000000000,  0.750000000000000,  0.000000000000000 ]
    mass: 140.116000
    reduced_to: 1
  - symbol: Ce # 16
    coordinates: [  0.750000000000000,  0.750000000000000,  0.000000000000000 ]
    mass: 140.116000
    reduced_to: 1
  - symbol: Ce # 17
    coordinates: [  0.000000000000000,  0.000000000000000,  0.250000000000000 ]
    mass: 140.116000
    reduced_to: 1
  - symbol: Ce # 18
    coordinates: [  0.250000000000000,  0.000000000000000,  0.250000000000000 ]
    mass: 140.116000
    reduced_to: 1
  - symbol: Ce # 19
    coordinates: [  0.500000000000000,  0.000000000000000,  0.250000000000000 ]
    mass: 140.116000
    reduced_to: 1
  - symbol: Ce # 20
    coordinates: [  0.750000000000000,  0.000000000000000,  0.250000000000000 ]
    mass: 140.116000
    reduced_to: 1
  - symbol: Ce # 21
    coordinates: [  0.000000000000000,  0.250000000000000,  0.250000000000000 ]
    mass: 140.116000
    reduced_to: 1
  - symbol: Ce # 22
    coordinates: [  0.250000000000000,  0.250000000000000,  0.250000000000000 ]
    mass: 140.116000
    reduced_to: 1
  - symbol: Ce # 23
    coordinates: [  0.500000000000000,  0.250000000000000,  0.250000000000000 ]
    mass: 140.116000
    reduced_to: 1
  - symbol: Ce # 24
    coordinates: [  0.750000000000000,  0.250000000000000,  0.250000000000000 ]
    mass: 140.116000
    reduced_to: 1
  - symbol: Ce # 25
    coordinates: [  0.000000000000000,  0.500000000000000,  0.250000000000000 ]
    mass: 140.116000
    reduced_to: 1
  - symbol: Ce # 26
    coordinates: [  0.250000000000000,  0.500000000000000,  0.250000000000000 ]
    mass: 140.116000
    reduced_to: 1
  - symbol: Ce # 27
    coordinates: [  0.500000000000000,  0.500000000000000,  0.250000000000000 ]
    mass: 140.116000
    reduced_to: 1
  - symbol: Ce # 28
    coordinates: [  0.750000000000000,  0.500000000000000,  0.250000000000000 ]
    mass: 140.116000
    reduced_to: 1
  - symbol: Ce # 29
    coordinates: [  0.000000000000000,  0.750000000000000,  0.250000000000000 ]
    mass: 140.116000
    reduced_to: 1
  - symbol: Ce # 30
    coordinates: [  0.250000000000000,  0.750000000000000,  0.250000000000000 ]
    mass: 140.116000
    reduced_to: 1
  - symbol: Ce # 31
    coordinates: [  0.500000000000000,  0.750000000000000,  0.250000000000000 ]
    mass: 140.116000
    reduced_to: 1
  - symbol: Ce # 32
    coordinates: [  0.750000000000000,  0.750000000000000,  0.250000000000000 ]
    mass: 140.116000
    reduced_to: 1
  - symbol: Ce # 33
    coordinates: [  0.000000000000000,  0.000000000000000,  0.500000000000000 ]
    mass: 140.116000
    reduced_to: 1
  - symbol: Ce # 34
    coordinates: [  0.250000000000000,  0.000000000000000,  0.500000000000000 ]
    mass: 140.116000
    reduced_to: 1
  - symbol: Ce # 35
    coordinates: [  0.500000000000000,  0.000000000000000,  0.500000000000000 ]
    mass: 140.116000
    reduced_to: 1
  - symbol: Ce # 36
    coordinates: [  0.750000000000000,  0.000000000000000,  0.500000000000000 ]
    mass: 140.116000
    reduced_to: 1
  - symbol: Ce # 37
    coordinates: [  0.000000000000000,  0.250000000000000,  0.500000000000000 ]
    mass: 140.116000
    reduced_to: 1
  - symbol: Ce # 38
    coordinates: [  0.250000000000000,  0.250000000000000,  0.500000000000000 ]
    mass: 140.116000
    reduced_to: 1
  - symbol: Ce # 39
    coordinates: [  0.500000000000000,  0.250000000000000,  0.500000000000000 ]
    mass: 140.116000
    reduced_to: 1
  - symbol: Ce # 40
    coordinates: [  0.750000000000000,  0.250000000000000,  0.500000000000000 ]
    mass: 140.116000
    reduced_to: 1
  - symbol: Ce # 41
    coordinates: [  0.000000000000000,  0.500000000000000,  0.500000000000000 ]
    mass: 140.116000
    reduced_to: 1
  - symbol: Ce # 42
    coordinates: [  0.250000000000000,  0.500000000000000,  0.500000000000000 ]
    mass: 140.116000
    reduced_to: 1
  - symbol: Ce # 43
    coordinates: [  0.500000000000000,  0.500000000000000,  0.500000000000000 ]
    mass: 140.116000
    reduced_to: 1
  - symbol: Ce # 44
    coordinates: [  0.750000000000000,  0.500000000000000,  0.500000000000000 ]
    mass: 140.116000
    reduced_to: 1
  - symbol: Ce # 45
    coordinates: [  0.000000000000000,  0.750000000000000,  0.500000000000000 ]
    mass: 140.116000
    reduced_to: 1
  - symbol: Ce # 46
    coordinates: [  0.250000000000000,  0.750000000000000,  0.500000000000000 ]
    mass: 140.116000
    reduced_to: 1
  - symbol: Ce # 47
    coordinates: [  0.500000000000000,  0.750000000000000,  0.500000000000000 ]
    mass: 140.116000
    reduced_to: 1
  - symbol: Ce # 48
    coordinates: [  0.750000000000000,  0.750000000000000,  0.500000000000000 ]
    mass: 140.116000
    reduced_to: 1
  - symbol: Ce # 49
    coordinates: [  0.000000000000000,  0.000000000000000,  0.750000000000000 ]
    mass: 140.116000
    reduced_to: 1
  - symbol: Ce # 50
    coordinates: [  0.250000000000000,  0.000000000000000,  0.750000000000000 ]
    mass: 140.116000
    reduced_to: 1
  - symbol: Ce # 51
    coordinates: [  0.500000000000000,  0.000000000000000,  0.750000000000000 ]
    mass: 140.116000
    reduced_to: 1
  - symbol: Ce # 52
    coordinates: [  0.750000000000000,  0.000000000000000,  0.750000000000000 ]
    mass: 140.116000
    reduced_to: 1
  - symbol: Ce # 53
    coordinates: [  0.000000000000000,  0.250000000000000,  0.750000000000000 ]
    mass: 140.116000
    reduced_to: 1
  - symbol: Ce # 54
    coordinates: [  0.250000000000000,  0.250000000000000,  0.750000000000000 ]
    mass: 140.116000
    reduced_to: 1
  - symbol: Ce # 55
    coordinates: [  0.500000000000000,  0.250000000000000,  0.750000000000000 ]
    mass: 140.116000
    reduced_to: 1
  - symbol: Ce # 56
    coordinates: [  0.750000000000000,  0.250000000000000,  0.750000000000000 ]
    mass: 140.116000
    reduced_to: 1
  - symbol: Ce # 57
    coordinates: [  0.000000000000000,  0.500000000000000,  0.750000000000000 ]
    mass: 140.116000
    reduced_to: 1
  - symbol: Ce # 58
    coordinates: [  0.250000000000000,  0.500000000000000,  0.750000000000000 ]
    mass: 140.116000
    reduced_to: 1
  - symbol: Ce # 59
    coordinates: [  0.500000000000000,  0.500000000000000,  0.750000000000000 ]
    mass: 140.116000
    reduced_to: 1
  - symbol: Ce # 60
    coordinates: [  0.750000000000000,  0.500000000000000,  0.750000000000000 ]
    mass: 140.116000
    reduced_to: 1
  - symbol: Ce # 61
    coordinates: [  0.000000000000000,  0.750000000000000,  0.750000000000000 ]
    mass: 140.116000
    reduced_to: 1
  - symbol: Ce # 62
    coordinates: [  0.250000000000000,  0.750000000000000,  0.750000000000000 ]
    mass: 140.116000
    reduced_to: 1
  - symbol: Ce # 63
    coordinates: [  0.500000000000000,  0.750000000000000,  0.750000000000000 ]
    mass: 140.116000
    reduced_to: 1
  - symbol: Ce # 64
    coordinates: [  0.750000000000000,  0.750000000000000,  0.750000000000000 ]
    mass: 140.116000
    reduced_to: 1
  - symbol: Ce # 65
    coordinates: [  0.062500000000000,  0.187500000000000,  0.125000000000000 ]
    mass: 140.116000
    reduced_to: 65
  - symbol: Ce # 66
    coordinates: [  0.312500000000000,  0.187500000000000,  0.125000000000000 ]
    mass: 140.116000
    reduced_to: 65
  - symbol: Ce # 67
    coordinates: [  0.562500000000000,  0.187500000000000,  0.125000000000000 ]
    mass: 140.116000
    reduced_to: 65
  - symbol: Ce # 68
    coordinates: [  0.812500000000000,  0.187500000000000,  0.125000000000000 ]
    mass: 140.116000
    reduced_to: 65
  - symbol: Ce # 69
    coordinates: [  0.062500000000000,  0.437500000000000,  0.125000000000000 ]
    mass: 140.116000
    reduced_to: 65
  - symbol: Ce # 70
    coordinates: [  0.312500000000000,  0.437500000000000,  0.125000000000000 ]
    mass: 140.116000
    reduced_to: 65
  - symbol: Ce # 71
    coordinates: [  0.562500000000000,  0.437500000000000,  0.125000000000000 ]
    mass: 140.116000
    reduced_to: 65
  - symbol: Ce # 72
    coordinates: [  0.812500000000000,  0.437500000000000,  0.125000000000000 ]
    mass: 140.116000
    reduced_to: 65
  - symbol: Ce # 73
    coordinates: [  0.062500000000000,  0.687500000000000,  0.125000000000000 ]
    mass: 140.116000
    reduced_to: 65
  - symbol: Ce # 74
    coordinates: [  0.312500000000000,  0.687500000000000,  0.125000000000000 ]
    mass: 140.116000
    reduced_to: 65
  - symbol: Ce # 75
    coordinates: [  0.562500000000000,  0.687500000000000,  0.125000000000000 ]
    mass: 140.116000
    reduced_to: 65
  - symbol: Ce # 76
    coordinates: [  0.812500000000000,  0.687500000000000,  0.125000000000000 ]
    mass: 140.116000
    reduced_to: 65
  - symbol: Ce # 77
    coordinates: [  0.062500000000000,  0.937500000000000,  0.125000000000000 ]
    mass: 140.116000
    reduced_to: 65
  - symbol: Ce # 78
    coordinates: [  0.312500000000000,  0.937500000000000,  0.125000000000000 ]
    mass: 140.116000
    reduced_to: 65
  - symbol: Ce # 79
    coordinates: [  0.562500000000000,  0.937500000000000,  0.125000000000000 ]
    mass: 140.116000
    reduced_to: 65
  - symbol: Ce # 80
    coordinates: [  0.812500000000000,  0.937500000000000,  0.125000000000000 ]
    mass: 140.116000
    reduced_to: 65
  - symbol: Ce # 81
    coordinates: [  0.062500000000000,  0.187500000000000,  0.375000000000000 ]
    mass: 140.116000
    reduced_to: 65
  - symbol: Ce # 82
    coordinates: [  0.312500000000000,  0.187500000000000,  0.375000000000000 ]
    mass: 140.116000
    reduced_to: 65
  - symbol: Ce # 83
    coordinates: [  0.562500000000000,  0.187500000000000,  0.375000000000000 ]
    mass: 140.116000
    reduced_to: 65
  - symbol: Ce # 84
    coordinates: [  0.812500000000000,  0.187500000000000,  0.375000000000000 ]
    mass: 140.116000
    reduced_to: 65
  - symbol: Ce # 85
    coordinates: [  0.062500000000000,  0.437500000000000,  0.375000000000000 ]
    mass: 140.116000
    reduced_to: 65
  - symbol: Ce # 86
    coordinates: [  0.312500000000000,  0.437500000000000,  0.375000000000000 ]
    mass: 140.116000
    reduced_to: 65
  - symbol: Ce # 87
    coordinates: [  0.562500000000000,  0.437500000000000,  0.375000000000000 ]
    mass: 140.116000
    reduced_to: 65
  - symbol: Ce # 88
    coordinates: [  0.812500000000000,  0.437500000000000,  0.375000000000000 ]
    mass: 140.116000
    reduced_to: 65
  - symbol: Ce # 89
    coordinates: [  0.062500000000000,  0.687500000000000,  0.375000000000000 ]
    mass: 140.116000
    reduced_to: 65
  - symbol: Ce # 90
    coordinates: [  0.312500000000000,  0.687500000000000,  0.375000000000000 ]
    mass: 140.116000
    reduced_to: 65
  - symbol: Ce # 91
    coordinates: [  0.562500000000000,  0.687500000000000,  0.375000000000000 ]
    mass: 140.116000
    reduced_to: 65
  - symbol: Ce # 92
    coordinates: [  0.812500000000000,  0.687500000000000,  0.375000000000000 ]
    mass: 140.116000
    reduced_to: 65
  - symbol: Ce # 93
    coordinates: [  0.062500000000000,  0.937500000000000,  0.375000000000000 ]
    mass: 140.116000
    reduced_to: 65
  - symbol: Ce # 94
    coordinates: [  0.312500000000000,  0.937500000000000,  0.375000000000000 ]
    mass: 140.116000
    reduced_to: 65
  - symbol: Ce # 95
    coordinates: [  0.562500000000000,  0.937500000000000,  0.375000000000000 ]
    mass: 140.116000
    reduced_to: 65
  - symbol: Ce # 96
    coordinates: [  0.812500000000000,  0.937500000000000,  0.375000000000000 ]
    mass: 140.116000
    reduced_to: 65
  - symbol: Ce # 97
    coordinates: [  0.062500000000000,  0.187500000000000,  0.625000000000000 ]
    mass: 140.116000
    reduced_to: 65
  - symbol: Ce # 98
    coordinates: [  0.312500000000000,  0.187500000000000,  0.625000000000000 ]
    mass: 140.116000
    reduced_to: 65
  - symbol: Ce # 99
    coordinates: [  0.562500000000000,  0.187500000000000,  0.625000000000000 ]
    mass: 140.116000
    reduced_to: 65
  - symbol: Ce # 100
    coordinates: [  0.812500000000000,  0.187500000000000,  0.625000000000000 ]
    mass: 140.116000
    reduced_to: 65
  - symbol: Ce # 101
    coordinates: [  0.062500000000000,  0.437500000000000,  0.625000000000000 ]
    mass: 140.116000
    reduced_to: 65
  - symbol: Ce # 102
    coordinates: [  0.312500000000000,  0.437500000000000,  0.625000000000000 ]
    mass: 140.116000
    reduced_to: 65
  - symbol: Ce # 103
    coordinates: [  0.562500000000000,  0.437500000000000,  0.625000000000000 ]
    mass: 140.116000
    reduced_to: 65
  - symbol: Ce # 104
    coordinates: [  0.812500000000000,  0.437500000000000,  0.625000000000000 ]
    mass: 140.116000
    reduced_to: 65
  - symbol: Ce # 105
    coordinates: [  0.062500000000000,  0.687500000000000,  0.625000000000000 ]
    mass: 140.116000
    reduced_to: 65
  - symbol: Ce # 106
    coordinates: [  0.312500000000000,  0.687500000000000,  0.625000000000000 ]
    mass: 140.116000
    reduced_to: 65
  - symbol: Ce # 107
    coordinates: [  0.562500000000000,  0.687500000000000,  0.625000000000000 ]
    mass: 140.116000
    reduced_to: 65
  - symbol: Ce # 108
    coordinates: [  0.812500000000000,  0.687500000000000,  0.625000000000000 ]
    mass: 140.116000
    reduced_to: 65
  - symbol: Ce # 109
    coordinates: [  0.062500000000000,  0.937500000000000,  0.625000000000000 ]
    mass: 140.116000
    reduced_to: 65
  - symbol: Ce # 110
    coordinates: [  0.312500000000000,  0.937500000000000,  0.625000000000000 ]
    mass: 140.116000
    reduced_to: 65
  - symbol: Ce # 111
    coordinates: [  0.562500000000000,  0.937500000000000,  0.625000000000000 ]
    mass: 140.116000
    reduced_to: 65
  - symbol: Ce # 112
    coordinates: [  0.812500000000000,  0.937500000000000,  0.625000000000000 ]
    mass: 140.116000
    reduced_to: 65
  - symbol: Ce # 113
    coordinates: [  0.062500000000000,  0.187500000000000,  0.875000000000000 ]
    mass: 140.116000
    reduced_to: 65
  - symbol: Ce # 114
    coordinates: [  0.312500000000000,  0.187500000000000,  0.875000000000000 ]
    mass: 140.116000
    reduced_to: 65
  - symbol: Ce # 115
    coordinates: [  0.562500000000000,  0.187500000000000,  0.875000000000000 ]
    mass: 140.116000
    reduced_to: 65
  - symbol: Ce # 116
    coordinates: [  0.812500000000000,  0.187500000000000,  0.875000000000000 ]
    mass: 140.116000
    reduced_to: 65
  - symbol: Ce # 117
    coordinates: [  0.062500000000000,  0.437500000000000,  0.875000000000000 ]
    mass: 140.116000
    reduced_to: 65
  - symbol: Ce # 118
    coordinates: [  0.312500000000000,  0.437500000000000,  0.875000000000000 ]
    mass: 140.116000
    reduced_to: 65
  - symbol: Ce # 119
    coordinates: [  0.562500000000000,  0.437500000000000,  0.875000000000000 ]
    mass: 140.116000
    reduced_to: 65
  - symbol: Ce # 120
    coordinates: [  0.812500000000000,  0.437500000000000,  0.875000000000000 ]
    mass: 140.116000
    reduced_to: 65
  - symbol: Ce # 121
    coordinates: [  0.062500000000000,  0.687500000000000,  0.875000000000000 ]
    mass: 140.116000
    reduced_to: 65
  - symbol: Ce # 122
    coordinates: [  0.312500000000000,  0.687500000000000,  0.875000000000000 ]
    mass: 140.116000
    reduced_to: 65
  - symbol: Ce # 123
    coordinates: [  0.562500000000000,  0.687500000000000,  0.875000000000000 ]
    mass: 140.116000
    reduced_to: 65
  - symbol: Ce # 124
    coordinates: [  0.812500000000000,  0.687500000000000,  0.875000000000000 ]
    mass: 140.116000
    reduced_to: 65
  - symbol: Ce # 125
    coordinates: [  0.062500000000000,  0.937500000000000,  0.875000000000000 ]
    mass: 140.116000
    reduced_to: 65
  - symbol: Ce # 126
    coordinates: [  0.312500000000000,  0.937500000000000,  0.875000000000000 ]
    mass: 140.116000
    reduced_to: 65
  - symbol: Ce # 127
    coordinates: [  0.562500000000000,  0.937500000000000,  0.875000000000000 ]
    mass: 140.116000
    reduced_to: 65
  - symbol: Ce # 128
    coordinates: [  0.812500000000000,  0.937500000000000,  0.875000000000000 ]
    mass: 140.116000
    reduced_to: 65
  - symbol: Na # 129
    coordinates: [  0.125000000000000,  0.125000000000000,  0.000000000000000 ]
    mass: 22.989769
    reduced_to: 129
  - symbol: Na # 130
    coordinates: [  0.375000000000000,  0.125000000000000,  0.000000000000000 ]
    mass: 22.989769
    reduced_to: 129
  - symbol: Na # 131
    coordinates: [  0.625000000000000,  0.125000000000000,  0.000000000000000 ]
    mass: 22.989769
    reduced_to: 129
  - symbol: Na # 132
    coordinates: [  0.875000000000000,  0.125000000000000,  0.000000000000000 ]
    mass: 22.989769
    reduced_to: 129
  - symbol: Na # 133
    coordinates: [  0.125000000000000,  0.375000000000000,  0.000000000000000 ]
    mass: 22.989769
    reduced_to: 129
  - symbol: Na # 134
    coordinates: [  0.375000000000000,  0.375000000000000,  0.000000000000000 ]
    mass: 22.989769
    reduced_to: 129
  - symbol: Na # 135
    coordinates: [  0.625000000000000,  0.375000000000000,  0.000000000000000 ]
    mass: 22.989769
    reduced_to: 129
  - symbol: Na # 136
    coordinates: [  0.875000000000000,  0.375000000000000,  0.000000000000000 ]
    mass: 22.989769
    reduced_to: 129
  - symbol: Na # 137
    coordinates: [  0.125000000000000,  0.625000000000000,  0.000000000000000 ]
    mass: 22.989769
    reduced_to: 129
  - symbol: Na # 138
    coordinates: [  0.375000000000000,  0.625000000000000,  0.000000000000000 ]
    mass: 22.989769
    reduced_to: 129
  - symbol: Na # 139
    coordinates: [  0.625000000000000,  0.625000000000000,  0.000000000000000 ]
    mass: 22.989769
    reduced_to: 129
  - symbol: Na # 140
    coordinates: [  0.875000000000000,  0.625000000000000,  0.000000000000000 ]
    mass: 22.989769
    reduced_to: 129
  - symbol: Na # 141
    coordinates: [  0.125000000000000,  0.875000000000000,  0.000000000000000 ]
    mass: 22.989769
    reduced_to: 129
  - symbol: Na # 142
    coordinates: [  0.375000000000000,  0.875000000000000,  0.000000000000000 ]
    mass: 22.989769
    reduced_to: 129
  - symbol: Na # 143
    coordinates: [  0.625000000000000,  0.875000000000000,  0.000000000000000 ]
    mass: 22.989769
    reduced_to: 129
  - symbol: Na # 144
    coordinates: [  0.875000000000000,  0.875000000000000,  0.000000000000000 ]
    mass: 22.989769
    reduced_to: 129
  - symbol: Na # 145
    coordinates: [  0.125000000000000,  0.125000000000000,  0.250000000000000 ]
    mass: 22.989769
    reduced_to: 129
  - symbol: Na # 146
    coordinates: [  0.375000000000000,  0.125000000000000,  0.250000000000000 ]
    mass: 22.989769
    reduced_to: 129
  - symbol: Na # 147
    coordinates: [  0.625000000000000,  0.125000000000000,  0.250000000000000 ]
    mass: 22.989769
    reduced_to: 129
  - symbol: Na # 148
    coordinates: [  0.875000000000000,  0.125000000000000,  0.250000000000000 ]
    mass: 22.989769
    reduced_to: 129
  - symbol: Na # 149
    coordinates: [  0.125000000000000,  0.375000000000000,  0.250000000000000 ]
    mass: 22.989769
    reduced_to: 129
  - symbol: Na # 150
    coordinates: [  0.375000000000000,  0.375000000000000,  0.250000000000000 ]
    mass: 22.989769
    reduced_to: 129
  - symbol: Na # 151
    coordinates: [  0.625000000000000,  0.375000000000000,  0.250000000000000 ]
    mass: 22.989769
    reduced_to: 129
  - symbol: Na # 152
    coordinates: [  0.875000000000000,  0.375000000000000,  0.250000000000000 ]
    mass: 22.989769
    reduced_to: 129
  - symbol: Na # 153
    coordinates: [  0.125000000000000,  0.625000000000000,  0.250000000000000 ]
    mass: 22.989769
    reduced_to: 129
  - symbol: Na # 154
    coordinates: [  0.375000000000000,  0.625000000000000,  0.250000000000000 ]
    mass: 22.989769
    reduced_to: 129
  - symbol: Na # 155
    coordinates: [  0.625000000000000,  0.625000000000000,  0.250000000000000 ]
    mass: 22.989769
    reduced_to: 129
  - symbol: Na # 156
    coordinates: [  0.875000000000000,  0.625000000000000,  0.250000000000000 ]
    mass: 22.989769
    reduced_to: 129
  - symbol: Na # 157
    coordinates: [  0.125000000000000,  0.875000000000000,  0.250000000000000 ]
    mass: 22.989769
    reduced_to: 129
  - symbol: Na # 158
    coordinates: [  0.375000000000000,  0.875000000000000,  0.250000000000000 ]
    mass: 22.989769
    reduced_to: 129
  - symbol: Na # 159
    coordinates: [  0.625000000000000,  0.875000000000000,  0.250000000000000 ]
    mass: 22.989769
    reduced_to: 129
  - symbol: Na # 160
    coordinates: [  0.875000000000000,  0.875000000000000,  0.250000000000000 ]
    mass: 22.989769
    reduced_to: 129
  - symbol: Na # 161
    coordinates: [  0.125000000000000,  0.125000000000000,  0.500000000000000 ]
    mass: 22.989769
    reduced_to: 129
  - symbol: Na # 162
    coordinates: [  0.375000000000000,  0.125000000000000,  0.500000000000000 ]
    mass: 22.989769
    reduced_to: 129
  - symbol: Na # 163
    coordinates: [  0.625000000000000,  0.125000000000000,  0.500000000000000 ]
    mass: 22.989769
    reduced_to: 129
  - symbol: Na # 164
    coordinates: [  0.875000000000000,  0.125000000000000,  0.500000000000000 ]
    mass: 22.989769
    reduced_to: 129
  - symbol: Na # 165
    coordinates: [  0.125000000000000,  0.375000000000000,  0.500000000000000 ]
    mass: 22.989769
    reduced_to: 129
  - symbol: Na # 166
    coordinates: [  0.375000000000000,  0.375000000000000,  0.500000000000000 ]
    mass: 22.989769
    reduced_to: 129
  - symbol: Na # 167
    coordinates: [  0.625000000000000,  0.375000000000000,  0.500000000000000 ]
    mass: 22.989769
    reduced_to: 129
  - symbol: Na # 168
    coordinates: [  0.875000000000000,  0.375000000000000,  0.500000000000000 ]
    mass: 22.989769
    reduced_to: 129
  - symbol: Na # 169
    coordinates: [  0.125000000000000,  0.625000000000000,  0.500000000000000 ]
    mass: 22.989769
    reduced_to: 129
  - symbol: Na # 170
    coordinates: [  0.375000000000000,  0.625000000000000,  0.500000000000000 ]
    mass: 22.989769
    reduced_to: 129
  - symbol: Na # 171
    coordinates: [  0.625000000000000,  0.625000000000000,  0.500000000000000 ]
    mass: 22.989769
    reduced_to: 129
  - symbol: Na # 172
    coordinates: [  0.875000000000000,  0.625000000000000,  0.500000000000000 ]
    mass: 22.989769
    reduced_to: 129
  - symbol: Na # 173
    coordinates: [  0.125000000000000,  0.875000000000000,  0.500000000000000 ]
    mass: 22.989769
    reduced_to: 129
  - symbol: Na # 174
    coordinates: [  0.375000000000000,  0.875000000000000,  0.500000000000000 ]
    mass: 22.989769
    reduced_to: 129
  - symbol: Na # 175
    coordinates: [  0.625000000000000,  0.875000000000000,  0.500000000000000 ]
    mass: 22.989769
    reduced_to: 129
  - symbol: Na # 176
    coordinates: [  0.875000000000000,  0.875000000000000,  0.500000000000000 ]
    mass: 22.989769
    reduced_to: 129
  - symbol: Na # 177
    coordinates: [  0.125000000000000,  0.125000000000000,  0.750000000000000 ]
    mass: 22.989769
    reduced_to: 129
  - symbol: Na # 178
    coordinates: [  0.375000000000000,  0.125000000000000,  0.750000000000000 ]
    mass: 22.989769
    reduced_to: 129
  - symbol: Na # 179
    coordinates: [  0.625000000000000,  0.125000000000000,  0.750000000000000 ]
    mass: 22.989769
    reduced_to: 129
  - symbol: Na # 180
    coordinates: [  0.875000000000000,  0.125000000000000,  0.750000000000000 ]
    mass: 22.989769
    reduced_to: 129
  - symbol: Na # 181
    coordinates: [  0.125000000000000,  0.375000000000000,  0.750000000000000 ]
    mass: 22.989769
    reduced_to: 129
  - symbol: Na # 182
    coordinates: [  0.375000000000000,  0.375000000000000,  0.750000000000000 ]
    mass: 22.989769
    reduced_to: 129
  - symbol: Na # 183
    coordinates: [  0.625000000000000,  0.375000000000000,  0.750000000000000 ]
    mass: 22.989769
    reduced_to: 129
  - symbol: Na # 184
    coordinates: [  0.875000000000000,  0.375000000000000,  0.750000000000000 ]
    mass: 22.989769
    reduced_to: 129
  - symbol: Na # 185
    coordinates: [  0.125000000000000,  0.625000000000000,  0.750000000000000 ]
    mass: 22.989769
    reduced_to: 129
  - symbol: Na # 186
    coordinates: [  0.375000000000000,  0.625000000000000,  0.750000000000000 ]
    mass: 22.989769
    reduced_to: 129
  - symbol: Na # 187
    coordinates: [  0.625000000000000,  0.625000000000000,  0.750000000000000 ]
    mass: 22.989769
    reduced_to: 129
  - symbol: Na # 188
    coordinates: [  0.875000000000000,  0.625000000000000,  0.750000000000000 ]
    mass: 22.989769
    reduced_to: 129
  - symbol: Na # 189
    coordinates: [  0.125000000000000,  0.875000000000000,  0.750000000000000 ]
    mass: 22.989769