# Tetrahedron method
       -1.6287988728        0.0000000000
       -1.5248176029        0.0000000000
       -1.4208363331        0.0000000000
       -1.3168550632        0.0000000000
       -1.2128737933        0.0000000000
       -1.1088925234        0.0000000000
       -1.0049112535        0.0000000000
       -0.9009299837        0.0000000000
       -0.7969487138        0.0000000000
       -0.6929674439        0.0000000000
       -0.5889861740        0.0000000000
       -0.4850049042        0.0000000000
       -0.3810236343        0.0000000000
       -0.2770423644        0.0000000000
       -0.1730610945        0.0000000000
       -0.0690798247        0.0000000000
        0.0349014452        0.0000000000
        0.1388827151        0.0012405138
        0.2428639850        0.0089924432
        0.3468452548        0.0209310324
        0.4508265247        0.0346967174
        0.5548077946        0.0563245626
        0.6587890645        0.0851788594
        0.7627703343        0.1269742262
        0.8667516042        0.1828904617
        0.9707328741        0.2581349959
        1.0747141440        0.3502979124
        1.1786954138        0.4723820734
        1.2826766837        0.6270112504
        1.3866579536        0.8358171997
        1.4906392235        1.1313504240
        1.5946204933        1.6955025828
        1.6986017632        2.7479183875
        1.8025830331        1.8365784943
        1.9065643030        1.6911591752
        2.0105455729        1.5277653517
        2.1145268427        2.1469380132
        2.2185081126        2.2099816807
        2.3224893825        2.0960973941
        2.4264706524        1.9827424289
        2.5304519222        1.6145088586
        2.6344331921        1.5627580635
        2.7384144620        1.6086787358
        2.8423957319        1.7292225401
        2.9463770017        1.5965673408
        3.0503582716        2.1152920368
        3.1543395415        1.8603326651
        3.2583208114        2.4357899128
        3.3623020812        2.0413335942
        3.4662833511        1.6918189186
        3.5702646210        1.6423470215
        3.6742458909        1.6599975896
        3.7782271607        1.5209718876
        3.8822084306        1.6887531627
        3.9861897005        2.2828838892
        4.0901709704        2.2026010143
        4.1941522402        2.3382065123
        4.2981335101        2.5684345890
        4.4021147800        3.2559248465
        4.5060960499        1.6398480907
        4.6100773197        0.9942450508
        4.7140585896        1.2629555933
        4.8180398595        1.7494686224
        4.9220211294        1.5446196673
        5.0260023993        1.7073434554
        5.1299836691        1.7013953635
        5.2339649390        1.6407307924
        5.3379462089        1.5870550433
        5.4419274788        1.8342042484
        5.5459087486        2.6363208485
        5.6498900185        1.3605568967
        5.7538712884        1.0810030231
        5.8578525583        1.0648395948
        5.9618338281        1.9045582099
        6.0658150980        2.0410911528
        6.1697963679        2.2963497311
        6.2737776378        2.1843969331
        6.3777589076        2.4630796676
        6.4817401775        2.6692259463
        6.5857214474        2.9529983277
        6.6897027173        2.2120582483
        6.7936839871        3.2486746964
        6.8976652570        2.7568782933
        7.0016465269        3.6503242957
        7.1056277968        4.2397756609
        7.2096090666        2.9904061021
        7.3135903365        3.1608288245
        7.4175716064        3.9956163006
        7.5215528763        4.3596690720
        7.6255341462        3.6322463550
        7.7295154160        3.7945427669
        7.8334966859        1.6117962359
        7.9374779558        2.4155710297
        8.0414592257        3.2175773764
        8.1454404955        2.6710030283
        8.2494217654        2.1703503876
        8.3534030353        2.2006816693
        8.4573843052        1.6820881478
        8.5613655750        1.0332445706
        8.6653468449        1.4874854105
        8.7693281148        1.4002796685
        8.8733093847        1.4126915845
        8.9772906545        1.3946563682
        9.0812719244        1.3523359434
        9.1852531943        1.1576856247
        9.2892344642        1.0555007998
        9.3932157340        0.8544809962
        9.4971970039        0.9638464819
        9.6011782738        1.0720449498
        9.7051595437        1.2590612804
        9.8091408135        1.5175601086
        9.9131220834        1.7320227527
       10.0171033533        2.0937328074
       10.1210846232        1.8686823170
       10.2250658930        1.7876325207
       10.3290471629        1.5772340754
       10.4330284328        2.2167407185
       10.5370097027        3.3031459707
       10.6409909726        2.2680795102
       10.7449722424        2.3035932143
       10.8489535123        2.5193046828
       10.9529347822        2.4173849434
       11.0569160521        2.1466996197
       11.1608973219        2.4147784383
       11.2648785918        0.6921345118
       11.3688598617        0.6240250072
       11.4728411316        0.5987879654
       11.5768224014        0.5211023819
       11.6808036713        1.7098097873
       11.7847849412        2.1624665415
       11.8887662111        1.0592695340
       11.9927474809        0.9573156540
       12.0967287508        0.8781343382
       12.2007100207        0.8610282434
       12.3046912906        0.8218775228
       12.4086725604        0.8018552907
       12.5126538303        0.8176477403
       12.6166351002        0.8037943201
       12.7206163701        0.8199563018
       12.8245976399        0.8328781648
       12.9285789098        0.8365461347
       13.0325601797        1.1765539239
       13.1365414496        0.0533746980
       13.2405227194        0.0602557160
       13.3445039893        0.0681862602
       13.4484852592        0.0762276419
       13.5524665291        0.0857323717
       13.6564477990        0.0946661565
       13.7604290688        0.1053683358
       13.8644103387        0.1145066422
       13.9683916086        0.1264072757
       14.0723728785        0.1389575503
       14.1763541483        0.1511752503
       14.2803354182        0.1644024290
       14.3843166881        0.1780662724
       14.4882979580        0.1912667866
       14.5922792278        0.2057236588
       14.6962604977        0.2200175271
       14.8002417676        0.2340631329
       14.9042230375        0.2526205276
       15.0082043073        0.2724369875
       15.1121855772        0.2935533465
       15.2161668471        0.3211560388
       15.3201481170        0.3519237835
       15.4241293868        0.3887990585
       15.5281106567        0.4375601944
       15.6320919266        0.4978623630
       15.7360731965        0.5938585009
       15.8400544663        0.8196077232
       15.9440357362        0.7461845616
       16.0480170061        0.6398249305
       16.1519982760        0.6076376708
       16.2559795459        0.6075429386
       16.3599608157        0.6233306626
       16.4639420856        0.6708097997
       16.5679233555        0.7473437300
       16.6719046254        0.9029319716
       16.7758858952        1.3493592446
       16.8798671651        1.2550052889
       16.9838484350        1.1940297464
       17.0878297049        1.1710373167
       17.1918109747        0.9435539731
       17.2957922446        0.7077366838
       17.3997735145        0.2578649958
       17.5037547844        0.0000000000
       17.6077360542        0.0000000000
       17.7117173241        0.0000000000
       17.8156985940        0.0000000000
       17.9196798639        0.0000000000
       18.0236611337        0.0000000000
       18.1276424036        0.0000000000
       18.2316236735        0.0000000000
       18.3356049434        0.0000000000
       18.4395862132        0.0000000000
       18.5435674831        0.0000000000
       18.6475487530        0.0000000000
       18.7515300229        0.0000000000
       18.8555112927        0.0000000000
       18.9594925626        0.0000000000
       19.0634738325        0.0000000000
       19.1674551024        0.0000000000
